# vtk DataFile Version 3.0
vtk output
ASCII
DATASET RECTILINEAR_GRID
DIMENSIONS          61          61 1
X_COORDINATES    61 double
  0.0000E+00
  0.1667E+00
  0.3333E+00
  0.5000E+00
  0.6667E+00
  0.8333E+00
  0.1000E+01
  0.1167E+01
  0.1333E+01
  0.1500E+01
  0.1667E+01
  0.1833E+01
  0.2000E+01
  0.2167E+01
  0.2333E+01
  0.2500E+01
  0.2667E+01
  0.2833E+01
  0.3000E+01
  0.3167E+01
  0.3333E+01
  0.3500E+01
  0.3667E+01
  0.3833E+01
  0.4000E+01
  0.4167E+01
  0.4333E+01
  0.4500E+01
  0.4667E+01
  0.4833E+01
  0.5000E+01
  0.5167E+01
  0.5333E+01
  0.5500E+01
  0.5667E+01
  0.5833E+01
  0.6000E+01
  0.6167E+01
  0.6333E+01
  0.6500E+01
  0.6667E+01
  0.6833E+01
  0.7000E+01
  0.7167E+01
  0.7333E+01
  0.7500E+01
  0.7667E+01
  0.7833E+01
  0.8000E+01
  0.8167E+01
  0.8333E+01
  0.8500E+01
  0.8667E+01
  0.8833E+01
  0.9000E+01
  0.9167E+01
  0.9333E+01
  0.9500E+01
  0.9667E+01
  0.9833E+01
  0.1000E+02
Y_COORDINATES    61 double
  0.0000E+00
  0.1667E+00
  0.3333E+00
  0.5000E+00
  0.6667E+00
  0.8333E+00
  0.1000E+01
  0.1167E+01
  0.1333E+01
  0.1500E+01
  0.1667E+01
  0.1833E+01
  0.2000E+01
  0.2167E+01
  0.2333E+01
  0.2500E+01
  0.2667E+01
  0.2833E+01
  0.3000E+01
  0.3167E+01
  0.3333E+01
  0.3500E+01
  0.3667E+01
  0.3833E+01
  0.4000E+01
  0.4167E+01
  0.4333E+01
  0.4500E+01
  0.4667E+01
  0.4833E+01
  0.5000E+01
  0.5167E+01
  0.5333E+01
  0.5500E+01
  0.5667E+01
  0.5833E+01
  0.6000E+01
  0.6167E+01
  0.6333E+01
  0.6500E+01
  0.6667E+01
  0.6833E+01
  0.7000E+01
  0.7167E+01
  0.7333E+01
  0.7500E+01
  0.7667E+01
  0.7833E+01
  0.8000E+01
  0.8167E+01
  0.8333E+01
  0.8500E+01
  0.8667E+01
  0.8833E+01
  0.9000E+01
  0.9167E+01
  0.9333E+01
  0.9500E+01
  0.9667E+01
  0.9833E+01
  0.1000E+02
Z_COORDINATES 1 double
0
CELL_DATA                 3600
FIELD FieldData 4
density 1                 3600 double
  0.2906E+01
  0.2906E+01
  0.2904E+01
  0.2898E+01
  0.2885E+01
  0.2858E+01
  0.2813E+01
  0.2750E+01
  0.2673E+01
  0.2589E+01
  0.2504E+01
  0.2418E+01
  0.2333E+01
  0.2251E+01
  0.2171E+01
  0.2093E+01
  0.2017E+01
  0.1945E+01
  0.1875E+01
  0.1807E+01
  0.1742E+01
  0.1680E+01
  0.1620E+01
  0.1562E+01
  0.1507E+01
  0.1454E+01
  0.1402E+01
  0.1353E+01
  0.1306E+01
  0.1260E+01
  0.1216E+01
  0.1174E+01
  0.1133E+01
  0.1094E+01
  0.1056E+01
  0.1020E+01
  0.9845E+00
  0.9507E+00
  0.9182E+00
  0.8870E+00
  0.8570E+00
  0.8284E+00
  0.8010E+00
  0.7748E+00
  0.7498E+00
  0.7259E+00
  0.7032E+00
  0.6820E+00
  0.6635E+00
  0.6488E+00
  0.6402E+00
  0.6395E+00
  0.6420E+00
  0.6642E+00
  0.8060E+00
  0.1259E+01
  0.2381E+01
  0.3023E+01
  0.2158E+01
  0.1648E+01
  0.2905E+01
  0.2904E+01
  0.2903E+01
  0.2897E+01
  0.2884E+01
  0.2857E+01
  0.2812E+01
  0.2749E+01
  0.2672E+01
  0.2589E+01
  0.2503E+01
  0.2417E+01
  0.2333E+01
  0.2250E+01
  0.2170E+01
  0.2092E+01
  0.2017E+01
  0.1944E+01
  0.1874E+01
  0.1806E+01
  0.1742E+01
  0.1679E+01
  0.1619E+01
  0.1562E+01
  0.1506E+01
  0.1453E+01
  0.1402E+01
  0.1353E+01
  0.1305E+01
  0.1259E+01
  0.1216E+01
  0.1173E+01
  0.1132E+01
  0.1093E+01
  0.1055E+01
  0.1019E+01
  0.9840E+00
  0.9502E+00
  0.9177E+00
  0.8864E+00
  0.8565E+00
  0.8278E+00
  0.8004E+00
  0.7742E+00
  0.7492E+00
  0.7253E+00
  0.7026E+00
  0.6814E+00
  0.6629E+00
  0.6481E+00
  0.6394E+00
  0.6386E+00
  0.6410E+00
  0.6633E+00
  0.8059E+00
  0.1262E+01
  0.2391E+01
  0.3033E+01
  0.2173E+01
  0.1650E+01
  0.2902E+01
  0.2902E+01
  0.2900E+01
  0.2895E+01
  0.2882E+01
  0.2855E+01
  0.2810E+01
  0.2747E+01
  0.2670E+01
  0.2587E+01
  0.2501E+01
  0.2416E+01
  0.2331E+01
  0.2249E+01
  0.2168E+01
  0.2091E+01
  0.2015E+01
  0.1943E+01
  0.1873E+01
  0.1805E+01
  0.1740E+01
  0.1678E+01
  0.1618E+01
  0.1560E+01
  0.1505E+01
  0.1452E+01
  0.1401E+01
  0.1351E+01
  0.1304E+01
  0.1258E+01
  0.1214E+01
  0.1172E+01
  0.1131E+01
  0.1092E+01
  0.1054E+01
  0.1018E+01
  0.9829E+00
  0.9491E+00
  0.9166E+00
  0.8853E+00
  0.8554E+00
  0.8267E+00
  0.7993E+00
  0.7731E+00
  0.7481E+00
  0.7242E+00
  0.7014E+00
  0.6802E+00
  0.6616E+00
  0.6468E+00
  0.6378E+00
  0.6368E+00
  0.6391E+00
  0.6617E+00
  0.8056E+00
  0.1265E+01
  0.2408E+01
  0.3046E+01
  0.2186E+01
  0.1654E+01
  0.2899E+01
  0.2898E+01
  0.2897E+01
  0.2891E+01
  0.2879E+01
  0.2852E+01
  0.2807E+01
  0.2744E+01
  0.2668E+01
  0.2585E+01
  0.2499E+01
  0.2413E+01
  0.2329E+01
  0.2247E+01
  0.2166E+01
  0.2089E+01
  0.2013E+01
  0.1941E+01
  0.1871E+01
  0.1803E+01
  0.1738E+01
  0.1676E+01
  0.1616E+01
  0.1559E+01
  0.1503E+01
  0.1450E+01
  0.1399E+01
  0.1350E+01
  0.1302E+01
  0.1257E+01
  0.1213E+01
  0.1170E+01
  0.1130E+01
  0.1090E+01
  0.1053E+01
  0.1016E+01
  0.9812E+00
  0.9474E+00
  0.9149E+00
  0.8837E+00
  0.8537E+00
  0.8251E+00
  0.7976E+00
  0.7714E+00
  0.7464E+00
  0.7225E+00
  0.6997E+00
  0.6785E+00
  0.6597E+00
  0.6447E+00
  0.6353E+00
  0.6340E+00
  0.6362E+00
  0.6591E+00
  0.8049E+00
  0.1271E+01
  0.2430E+01
  0.3043E+01
  0.2191E+01
  0.1658E+01
  0.2894E+01
  0.2894E+01
  0.2892E+01
  0.2887E+01
  0.2874E+01
  0.2848E+01
  0.2803E+01
  0.2741E+01
  0.2665E+01
  0.2582E+01
  0.2496E+01
  0.2410E+01
  0.2326E+01
  0.2244E+01
  0.2163E+01
  0.2086E+01
  0.2010E+01
  0.1938E+01
  0.1868E+01
  0.1800E+01
  0.1736E+01
  0.1673E+01
  0.1614E+01
  0.1556E+01
  0.1501E+01
  0.1448E+01
  0.1396E+01
  0.1347E+01
  0.1300E+01
  0.1254E+01
  0.1210E+01
  0.1168E+01
  0.1127E+01
  0.1088E+01
  0.1050E+01
  0.1014E+01
  0.9789E+00
  0.9451E+00
  0.9126E+00
  0.8814E+00
  0.8515E+00
  0.8228E+00
  0.7953E+00
  0.7691E+00
  0.7441E+00
  0.7201E+00
  0.6973E+00
  0.6760E+00
  0.6571E+00
  0.6418E+00
  0.6319E+00
  0.6301E+00
  0.6321E+00
  0.6563E+00
  0.8064E+00
  0.1281E+01
  0.2461E+01
  0.3036E+01
  0.2188E+01
  0.1668E+01
  0.2888E+01
  0.2887E+01
  0.2886E+01
  0.2881E+01
  0.2868E+01
  0.2842E+01
  0.2798E+01
  0.2736E+01
  0.2660E+01
  0.2577E+01
  0.2492E+01
  0.2406E+01
  0.2322E+01
  0.2240E+01
  0.2160E+01
  0.2082E+01
  0.2007E+01
  0.1934E+01
  0.1864E+01
  0.1797E+01
  0.1732E+01
  0.1670E+01
  0.1610E+01
  0.1553E+01
  0.1497E+01
  0.1444E+01
  0.1393E+01
  0.1344E+01
  0.1297E+01
  0.1251E+01
  0.1207E+01
  0.1165E+01
  0.1124E+01
  0.1085E+01
  0.1047E+01
  0.1011E+01
  0.9759E+00
  0.9422E+00
  0.9097E+00
  0.8785E+00
  0.8485E+00
  0.8198E+00
  0.7924E+00
  0.7661E+00
  0.7410E+00
  0.7171E+00
  0.6942E+00
  0.6728E+00
  0.6537E+00
  0.6381E+00
  0.6275E+00
  0.6250E+00
  0.6270E+00
  0.6526E+00
  0.8088E+00
  0.1298E+01
  0.2505E+01
  0.3016E+01
  0.2167E+01
  0.1667E+01
  0.2880E+01
  0.2880E+01
  0.2878E+01
  0.2873E+01
  0.2861E+01
  0.2836E+01
  0.2792E+01
  0.2730E+01
  0.2655E+01
  0.2572E+01
  0.2487E+01
  0.2402E+01
  0.2317E+01
  0.2235E+01
  0.2155E+01
  0.2077E+01
  0.2002E+01
  0.1930E+01
  0.1860E+01
  0.1793E+01
  0.1728E+01
  0.1666E+01
  0.1606E+01
  0.1549E+01
  0.1493E+01
  0.1440E+01
  0.1389E+01
  0.1340E+01
  0.1293E+01
  0.1247E+01
  0.1203E+01
  0.1161E+01
  0.1121E+01
  0.1081E+01
  0.1044E+01
  0.1007E+01
  0.9723E+00
  0.9385E+00
  0.9060E+00
  0.8748E+00
  0.8448E+00
  0.8161E+00
  0.7887E+00
  0.7624E+00
  0.7372E+00
  0.7132E+00
  0.6903E+00
  0.6688E+00
  0.6494E+00
  0.6335E+00
  0.6221E+00
  0.6189E+00
  0.6210E+00
  0.6488E+00
  0.8134E+00
  0.1324E+01
  0.2562E+01
  0.2989E+01
  0.2140E+01
  0.1655E+01
  0.2871E+01
  0.2871E+01
  0.2869E+01
  0.2864E+01
  0.2852E+01
  0.2827E+01
  0.2785E+01
  0.2724E+01
  0.2649E+01
  0.2566E+01
  0.2481E+01
  0.2396E+01
  0.2312E+01
  0.2229E+01
  0.2150E+01
  0.2072E+01
  0.1997E+01
  0.1924E+01
  0.1855E+01
  0.1787E+01
  0.1723E+01
  0.1661E+01
  0.1601E+01
  0.1544E+01
  0.1488E+01
  0.1435E+01
  0.1384E+01
  0.1335E+01
  0.1288E+01
  0.1243E+01
  0.1199E+01
  0.1157E+01
  0.1116E+01
  0.1077E+01
  0.1039E+01
  0.1003E+01
  0.9677E+00
  0.9340E+00
  0.9015E+00
  0.8703E+00
  0.8403E+00
  0.8116E+00
  0.7841E+00
  0.7577E+00
  0.7325E+00
  0.7084E+00
  0.6854E+00
  0.6638E+00
  0.6441E+00
  0.6277E+00
  0.6153E+00
  0.6117E+00
  0.6141E+00
  0.6453E+00
  0.8208E+00
  0.1359E+01
  0.2641E+01
  0.2942E+01
  0.2108E+01
  0.1636E+01
  0.2860E+01
  0.2860E+01
  0.2858E+01
  0.2854E+01
  0.2842E+01
  0.2818E+01
  0.2776E+01
  0.2715E+01
  0.2641E+01
  0.2559E+01
  0.2474E+01
  0.2389E+01
  0.2305E+01
  0.2223E+01
  0.2143E+01
  0.2065E+01
  0.1990E+01
  0.1918E+01
  0.1848E+01
  0.1781E+01
  0.1717E+01
  0.1655E+01
  0.1595E+01
  0.1538E+01
  0.1482E+01
  0.1430E+01
  0.1379E+01
  0.1330E+01
  0.1282E+01
  0.1237E+01
  0.1193E+01
  0.1151E+01
  0.1110E+01
  0.1071E+01
  0.1034E+01
  0.9973E+00
  0.9623E+00
  0.9286E+00
  0.8961E+00
  0.8648E+00
  0.8348E+00
  0.8061E+00
  0.7785E+00
  0.7521E+00
  0.7268E+00
  0.7026E+00
  0.6794E+00
  0.6576E+00
  0.6375E+00
  0.6205E+00
  0.6070E+00
  0.6033E+00
  0.6062E+00
  0.6422E+00
  0.8340E+00
  0.1402E+01
  0.2741E+01
  0.2849E+01
  0.2065E+01
  0.1621E+01
  0.2848E+01
  0.2847E+01
  0.2846E+01
  0.2842E+01
  0.2830E+01
  0.2807E+01
  0.2765E+01
  0.2706E+01
  0.2632E+01
  0.2550E+01
  0.2466E+01
  0.2381E+01
  0.2297E+01
  0.2215E+01
  0.2135E+01
  0.2058E+01
  0.1983E+01
  0.1910E+01
  0.1841E+01
  0.1774E+01
  0.1709E+01
  0.1647E+01
  0.1588E+01
  0.1531E+01
  0.1476E+01
  0.1423E+01
  0.1372E+01
  0.1323E+01
  0.1276E+01
  0.1230E+01
  0.1187E+01
  0.1144E+01
  0.1104E+01
  0.1065E+01
  0.1027E+01
  0.9909E+00
  0.9559E+00
  0.9221E+00
  0.8896E+00
  0.8583E+00
  0.8283E+00
  0.7994E+00
  0.7717E+00
  0.7452E+00
  0.7197E+00
  0.6953E+00
  0.6720E+00
  0.6498E+00
  0.6293E+00
  0.6115E+00
  0.5968E+00
  0.5934E+00
  0.5974E+00
  0.6409E+00
  0.8555E+00
  0.1472E+01
  0.2806E+01
  0.2767E+01
  0.1994E+01
  0.1611E+01
  0.2833E+01
  0.2833E+01
  0.2832E+01
  0.2827E+01
  0.2817E+01
  0.2794E+01
  0.2753E+01
  0.2695E+01
  0.2622E+01
  0.2540E+01
  0.2456E+01
  0.2371E+01
  0.2287E+01
  0.2206E+01
  0.2126E+01
  0.2049E+01
  0.1974E+01
  0.1902E+01
  0.1832E+01
  0.1765E+01
  0.1701E+01
  0.1639E+01
  0.1579E+01
  0.1522E+01
  0.1467E+01
  0.1415E+01
  0.1364E+01
  0.1315E+01
  0.1268E+01
  0.1223E+01
  0.1179E+01
  0.1137E+01
  0.1096E+01
  0.1057E+01
  0.1020E+01
  0.9832E+00
  0.9482E+00
  0.9144E+00
  0.8818E+00
  0.8504E+00
  0.8203E+00
  0.7913E+00
  0.7634E+00
  0.7367E+00
  0.7110E+00
  0.6863E+00
  0.6627E+00
  0.6401E+00
  0.6190E+00
  0.6000E+00
  0.5846E+00
  0.5821E+00
  0.5893E+00
  0.6440E+00
  0.8910E+00
  0.1573E+01
  0.2834E+01
  0.2671E+01
  0.1892E+01
  0.1595E+01
  0.2817E+01
  0.2816E+01
  0.2815E+01
  0.2811E+01
  0.2801E+01
  0.2779E+01
  0.2740E+01
  0.2682E+01
  0.2610E+01
  0.2529E+01
  0.2445E+01
  0.2360E+01
  0.2277E+01
  0.2195E+01
  0.2115E+01
  0.2038E+01
  0.1964E+01
  0.1892E+01
  0.1822E+01
  0.1755E+01
  0.1691E+01
  0.1629E+01
  0.1570E+01
  0.1513E+01
  0.1458E+01
  0.1405E+01
  0.1355E+01
  0.1306E+01
  0.1259E+01
  0.1213E+01
  0.1170E+01
  0.1128E+01
  0.1087E+01
  0.1048E+01
  0.1010E+01
  0.9741E+00
  0.9389E+00
  0.9050E+00
  0.8723E+00
  0.8408E+00
  0.8104E+00
  0.7812E+00
  0.7532E+00
  0.7261E+00
  0.7001E+00
  0.6751E+00
  0.6511E+00
  0.6279E+00
  0.6060E+00
  0.5851E+00
  0.5712E+00
  0.5709E+00
  0.5845E+00
  0.6591E+00
  0.9496E+00
  0.1688E+01
  0.2835E+01
  0.2551E+01
  0.1798E+01
  0.1577E+01
  0.2798E+01
  0.2798E+01
  0.2797E+01
  0.2793E+01
  0.2783E+01
  0.2762E+01
  0.2724E+01
  0.2667E+01
  0.2596E+01
  0.2516E+01
  0.2432E+01
  0.2348E+01
  0.2264E+01
  0.2183E+01
  0.2103E+01
  0.2026E+01
  0.1952E+01
  0.1880E+01
  0.1811E+01
  0.1744E+01
  0.1680E+01
  0.1618E+01
  0.1559E+01
  0.1502E+01
  0.1447E+01
  0.1394E+01
  0.1344E+01
  0.1295E+01
  0.1248E+01
  0.1203E+01
  0.1159E+01
  0.1117E+01
  0.1077E+01
  0.1037E+01
  0.9995E+00
  0.9630E+00
  0.9277E+00
  0.8936E+00
  0.8607E+00
  0.8290E+00
  0.7983E+00
  0.7688E+00
  0.7404E+00
  0.7130E+00
  0.6866E+00
  0.6612E+00
  0.6366E+00
  0.6126E+00
  0.5896E+00
  0.5666E+00
  0.5588E+00
  0.5631E+00
  0.5901E+00
  0.6965E+00
  0.1022E+01
  0.1801E+01
  0.2802E+01
  0.2391E+01
  0.1700E+01
  0.1553E+01
  0.2777E+01
  0.2777E+01
  0.2776E+01
  0.2772E+01
  0.2763E+01
  0.2743E+01
  0.2706E+01
  0.2651E+01
  0.2580E+01
  0.2501E+01
  0.2417E+01
  0.2333E+01
  0.2250E+01
  0.2169E+01
  0.2090E+01
  0.2013E+01
  0.1938E+01
  0.1867E+01
  0.1797E+01
  0.1731E+01
  0.1667E+01
  0.1605E+01
  0.1546E+01
  0.1489E+01
  0.1434E+01
  0.1382E+01
  0.1331E+01
  0.1282E+01
  0.1235E+01
  0.1190E+01
  0.1146E+01
  0.1104E+01
  0.1064E+01
  0.1024E+01
  0.9863E+00
  0.9495E+00
  0.9140E+00
  0.8797E+00
  0.8464E+00
  0.8144E+00
  0.7834E+00
  0.7535E+00
  0.7247E+00
  0.6969E+00
  0.6701E+00
  0.6442E+00
  0.6189E+00
  0.5942E+00
  0.5686E+00
  0.5495E+00
  0.5493E+00
  0.5665E+00
  0.6162E+00
  0.7558E+00
  0.1103E+01
  0.1900E+01
  0.2706E+01
  0.2199E+01
  0.1608E+01
  0.1530E+01
  0.2753E+01
  0.2753E+01
  0.2752E+01
  0.2749E+01
  0.2740E+01
  0.2721E+01
  0.2685E+01
  0.2632E+01
  0.2562E+01
  0.2484E+01
  0.2401E+01
  0.2317E+01
  0.2234E+01
  0.2153E+01
  0.2074E+01
  0.1997E+01
  0.1923E+01
  0.1851E+01
  0.1782E+01
  0.1716E+01
  0.1652E+01
  0.1590E+01
  0.1531E+01
  0.1474E+01
  0.1420E+01
  0.1367E+01
  0.1316E+01
  0.1267E+01
  0.1220E+01
  0.1175E+01
  0.1131E+01
  0.1089E+01
  0.1048E+01
  0.1008E+01
  0.9701E+00
  0.9331E+00
  0.8973E+00
  0.8626E+00
  0.8290E+00
  0.7966E+00
  0.7653E+00
  0.7350E+00
  0.7059E+00
  0.6777E+00
  0.6506E+00
  0.6241E+00
  0.5981E+00
  0.5716E+00
  0.5450E+00
  0.5399E+00
  0.5496E+00
  0.5929E+00
  0.6664E+00
  0.8228E+00
  0.1179E+01
  0.1977E+01
  0.2564E+01
  0.2013E+01
  0.1523E+01
  0.1503E+01
  0.2726E+01
  0.2726E+01
  0.2725E+01
  0.2722E+01
  0.2714E+01
  0.2696E+01
  0.2662E+01
  0.2610E+01
  0.2542E+01
  0.2464E+01
  0.2381E+01
  0.2298E+01
  0.2215E+01
  0.2134E+01
  0.2055E+01
  0.1979E+01
  0.1905E+01
  0.1833E+01
  0.1764E+01
  0.1698E+01
  0.1634E+01
  0.1572E+01
  0.1513E+01
  0.1456E+01
  0.1402E+01
  0.1349E+01
  0.1298E+01
  0.1249E+01
  0.1202E+01
  0.1157E+01
  0.1113E+01
  0.1070E+01
  0.1029E+01
  0.9890E+00
  0.9505E+00
  0.9132E+00
  0.8771E+00
  0.8421E+00
  0.8082E+00
  0.7754E+00
  0.7438E+00
  0.7133E+00
  0.6838E+00
  0.6555E+00
  0.6280E+00
  0.6009E+00
  0.5739E+00
  0.5445E+00
  0.5325E+00
  0.5382E+00
  0.5737E+00
  0.6411E+00
  0.7302E+00
  0.8897E+00
  0.1249E+01
  0.2039E+01
  0.2357E+01
  0.1826E+01
  0.1439E+01
  0.1465E+01
  0.2694E+01
  0.2694E+01
  0.2693E+01
  0.2691E+01
  0.2683E+01
  0.2666E+01
  0.2634E+01
  0.2584E+01
  0.2517E+01
  0.2440E+01
  0.2359E+01
  0.2276E+01
  0.2193E+01
  0.2112E+01
  0.2034E+01
  0.1957E+01
  0.1883E+01
  0.1812E+01
  0.1743E+01
  0.1677E+01
  0.1613E+01
  0.1551E+01
  0.1492E+01
  0.1435E+01
  0.1380E+01
  0.1328E+01
  0.1277E+01
  0.1228E+01
  0.1180E+01
  0.1134E+01
  0.1090E+01
  0.1047E+01
  0.1006E+01
  0.9660E+00
  0.9272E+00
  0.8897E+00
  0.8533E+00
  0.8180E+00
  0.7839E+00
  0.7510E+00
  0.7192E+00
  0.6886E+00
  0.6591E+00
  0.6306E+00
  0.6027E+00
  0.5752E+00
  0.5448E+00
  0.5279E+00
  0.5316E+00
  0.5595E+00
  0.6209E+00
  0.7053E+00
  0.7956E+00
  0.9492E+00
  0.1317E+01
  0.2062E+01
  0.2106E+01
  0.1626E+01
  0.1362E+01
  0.1421E+01
  0.2658E+01
  0.2658E+01
  0.2657E+01
  0.2654E+01
  0.2648E+01
  0.2632E+01
  0.2602E+01
  0.2553E+01
  0.2489E+01
  0.2413E+01
  0.2332E+01
  0.2249E+01
  0.2167E+01
  0.2087E+01
  0.2008E+01
  0.1932E+01
  0.1858E+01
  0.1787E+01
  0.1718E+01
  0.1651E+01
  0.1588E+01
  0.1526E+01
  0.1467E+01
  0.1410E+01
  0.1355E+01
  0.1302E+01
  0.1251E+01
  0.1202E+01
  0.1154E+01
  0.1108E+01
  0.1064E+01
  0.1021E+01
  0.9794E+00
  0.9392E+00
  0.9003E+00
  0.8626E+00
  0.8261E+00
  0.7908E+00
  0.7567E+00
  0.7238E+00
  0.6921E+00
  0.6617E+00
  0.6323E+00
  0.6037E+00
  0.5756E+00
  0.5443E+00
  0.5258E+00
  0.5280E+00
  0.5506E+00
  0.6056E+00
  0.6869E+00
  0.7736E+00
  0.8533E+00
  0.1001E+01
  0.1386E+01
  0.1995E+01
  0.1857E+01
  0.1430E+01
  0.1296E+01
  0.1377E+01
  0.2615E+01
  0.2615E+01
  0.2614E+01
  0.2612E+01
  0.2606E+01
  0.2592E+01
  0.2563E+01
  0.2517E+01
  0.2454E+01
  0.2380E+01
  0.2299E+01
  0.2217E+01
  0.2136E+01
  0.2056E+01
  0.1977E+01
  0.1901E+01
  0.1828E+01
  0.1757E+01
  0.1688E+01
  0.1622E+01
  0.1558E+01
  0.1496E+01
  0.1437E+01
  0.1380E+01
  0.1325E+01
  0.1272E+01
  0.1221E+01
  0.1172E+01
  0.1124E+01
  0.1078E+01
  0.1034E+01
  0.9908E+00
  0.9492E+00
  0.9090E+00
  0.8701E+00
  0.8325E+00
  0.7962E+00
  0.7611E+00
  0.7272E+00
  0.6946E+00
  0.6634E+00
  0.6333E+00
  0.6040E+00
  0.5755E+00
  0.5438E+00
  0.5248E+00
  0.5263E+00
  0.5455E+00
  0.5948E+00
  0.6696E+00
  0.7556E+00
  0.8328E+00
  0.8990E+00
  0.1050E+01
  0.1434E+01
  0.1813E+01
  0.1584E+01
  0.1288E+01
  0.1246E+01
  0.1338E+01
  0.2565E+01
  0.2565E+01
  0.2565E+01
  0.2563E+01
  0.2557E+01
  0.2544E+01
  0.2518E+01
  0.2474E+01
  0.2413E+01
  0.2340E+01
  0.2261E+01
  0.2180E+01
  0.2099E+01
  0.2019E+01
  0.1941E+01
  0.1866E+01
  0.1792E+01
  0.1721E+01
  0.1653E+01
  0.1587E+01
  0.1523E+01
  0.1462E+01
  0.1403E+01
  0.1346E+01
  0.1291E+01
  0.1238E+01
  0.1187E+01
  0.1138E+01
  0.1090E+01
  0.1044E+01
  0.1000E+01
  0.9573E+00
  0.9160E+00
  0.8761E+00
  0.8375E+00
  0.8003E+00
  0.7644E+00
  0.7298E+00
  0.6965E+00
  0.6645E+00
  0.6338E+00
  0.6040E+00
  0.5750E+00
  0.5432E+00
  0.5241E+00
  0.5254E+00
  0.5437E+00
  0.5912E+00
  0.6625E+00
  0.7439E+00
  0.8191E+00
  0.8791E+00
  0.9349E+00
  0.1088E+01
  0.1418E+01
  0.1561E+01
  0.1348E+01
  0.1203E+01
  0.1214E+01
  0.1304E+01
  0.2508E+01
  0.2508E+01
  0.2507E+01
  0.2505E+01
  0.2501E+01
  0.2489E+01
  0.2465E+01
  0.2423E+01
  0.2365E+01
  0.2294E+01
  0.2216E+01
  0.2136E+01
  0.2056E+01
  0.1977E+01
  0.1899E+01
  0.1824E+01
  0.1751E+01
  0.1681E+01
  0.1613E+01
  0.1547E+01
  0.1483E+01
  0.1422E+01
  0.1364E+01
  0.1307E+01
  0.1252E+01
  0.1200E+01
  0.1149E+01
  0.1100E+01
  0.1053E+01
  0.1008E+01
  0.9639E+00
  0.9216E+00
  0.8808E+00
  0.8415E+00
  0.8036E+00
  0.7670E+00
  0.7318E+00
  0.6979E+00
  0.6654E+00
  0.6342E+00
  0.6040E+00
  0.5745E+00
  0.5421E+00
  0.5232E+00
  0.5245E+00
  0.5418E+00
  0.5858E+00
  0.6552E+00
  0.7381E+00
  0.8153E+00
  0.8811E+00
  0.9225E+00
  0.9595E+00
  0.1090E+01
  0.1283E+01
  0.1305E+01
  0.1188E+01
  0.1148E+01
  0.1191E+01
  0.1268E+01
  0.2442E+01
  0.2442E+01
  0.2442E+01
  0.2441E+01
  0.2436E+01
  0.2426E+01
  0.2404E+01
  0.2365E+01
  0.2310E+01
  0.2241E+01
  0.2165E+01
  0.2086E+01
  0.2007E+01
  0.1928E+01
  0.1852E+01
  0.1777E+01
  0.1705E+01
  0.1635E+01
  0.1568E+01
  0.1502E+01
  0.1440E+01
  0.1379E+01
  0.1321E+01
  0.1265E+01
  0.1211E+01
  0.1159E+01
  0.1109E+01
  0.1061E+01
  0.1014E+01
  0.9694E+00
  0.9263E+00
  0.8848E+00
  0.8448E+00
  0.8062E+00
  0.7691E+00
  0.7335E+00
  0.6991E+00
  0.6663E+00
  0.6347E+00
  0.6041E+00
  0.5744E+00
  0.5417E+00
  0.5229E+00
  0.5242E+00
  0.5414E+00
  0.5845E+00
  0.6492E+00
  0.7265E+00
  0.8027E+00
  0.8710E+00
  0.9249E+00
  0.9357E+00
  0.9462E+00
  0.1008E+01
  0.1074E+01
  0.1128E+01
  0.1108E+01
  0.1111E+01
  0.1172E+01
  0.1223E+01
  0.2370E+01
  0.2370E+01
  0.2370E+01
  0.2369E+01
  0.2365E+01
  0.2356E+01
  0.2336E+01
  0.2300E+01
  0.2248E+01
  0.2182E+01
  0.2108E+01
  0.2030E+01
  0.1952E+01
  0.1875E+01
  0.1800E+01
  0.1726E+01
  0.1655E+01
  0.1586E+01
  0.1519E+01
  0.1455E+01
  0.1393E+01
  0.1333E+01
  0.1276E+01
  0.1220E+01
  0.1167E+01
  0.1116E+01
  0.1067E+01
  0.1020E+01
  0.9743E+00
  0.9304E+00
  0.8883E+00
  0.8477E+00
  0.8087E+00
  0.7712E+00
  0.7351E+00
  0.7005E+00
  0.6673E+00
  0.6354E+00
  0.6045E+00
  0.5743E+00
  0.5416E+00
  0.5228E+00
  0.5238E+00
  0.5411E+00
  0.5865E+00
  0.6526E+00
  0.7276E+00
  0.7981E+00
  0.8608E+00
  0.9106E+00
  0.9279E+00
  0.9167E+00
  0.8505E+00
  0.8452E+00
  0.8984E+00
  0.1041E+01
  0.1084E+01
  0.1093E+01
  0.1148E+01
  0.1177E+01
  0.2292E+01
  0.2292E+01
  0.2292E+01
  0.2291E+01
  0.2288E+01
  0.2280E+01
  0.2262E+01
  0.2230E+01
  0.2181E+01
  0.2118E+01
  0.2046E+01
  0.1970E+01
  0.1894E+01
  0.1818E+01
  0.1744E+01
  0.1672E+01
  0.1602E+01
  0.1534E+01
  0.1468E+01
  0.1405E+01
  0.1344E+01
  0.1285E+01
  0.1229E+01
  0.1175E+01
  0.1123E+01
  0.1073E+01
  0.1025E+01
  0.9788E+00
  0.9344E+00
  0.8917E+00
  0.8507E+00
  0.8113E+00
  0.7734E+00
  0.7370E+00
  0.7021E+00
  0.6686E+00
  0.6364E+00
  0.6052E+00
  0.5749E+00
  0.5420E+00
  0.5234E+00
  0.5243E+00
  0.5404E+00
  0.5835E+00
  0.6526E+00
  0.7330E+00
  0.8040E+00
  0.8635E+00
  0.9099E+00
  0.9209E+00
  0.9068E+00
  0.8218E+00
  0.6916E+00
  0.6944E+00
  0.7943E+00
  0.9895E+00
  0.1086E+01
  0.1093E+01
  0.1117E+01
  0.1148E+01
  0.2211E+01
  0.2211E+01
  0.2211E+01
  0.2210E+01
  0.2208E+01
  0.2201E+01
  0.2185E+01
  0.2156E+01
  0.2110E+01
  0.2050E+01
  0.1981E+01
  0.1908E+01
  0.1833E+01
  0.1759E+01
  0.1686E+01
  0.1616E+01
  0.1547E+01
  0.1480E+01
  0.1416E+01
  0.1354E+01
  0.1295E+01
  0.1238E+01
  0.1183E+01
  0.1130E+01
  0.1079E+01
  0.1030E+01
  0.9835E+00
  0.9386E+00
  0.8954E+00
  0.8540E+00
  0.8141E+00
  0.7759E+00
  0.7392E+00
  0.7040E+00
  0.6703E+00
  0.6379E+00
  0.6064E+00
  0.5757E+00
  0.5423E+00
  0.5234E+00
  0.5246E+00
  0.5418E+00
  0.5852E+00
  0.6489E+00
  0.7266E+00
  0.8044E+00
  0.8705E+00
  0.9161E+00
  0.9225E+00
  0.9065E+00
  0.8160E+00
  0.6754E+00
  0.5737E+00
  0.6001E+00
  0.7291E+00
  0.9299E+00
  0.1088E+01
  0.1108E+01
  0.1089E+01
  0.1132E+01
  0.2129E+01
  0.2129E+01
  0.2128E+01
  0.2128E+01
  0.2126E+01
  0.2120E+01
  0.2106E+01
  0.2080E+01
  0.2038E+01
  0.1981E+01
  0.1915E+01
  0.1844E+01
  0.1771E+01
  0.1699E+01
  0.1628E+01
  0.1559E+01
  0.1492E+01
  0.1427E+01
  0.1365E+01
  0.1304E+01
  0.1246E+01
  0.1190E+01
  0.1137E+01
  0.1085E+01
  0.1036E+01
  0.9887E+00
  0.9432E+00
  0.8996E+00
  0.8577E+00
  0.8175E+00
  0.7789E+00
  0.7419E+00
  0.7064E+00
  0.6724E+00
  0.6397E+00
  0.6081E+00
  0.5771E+00
  0.5435E+00
  0.5238E+00
  0.5246E+00
  0.5413E+00
  0.5850E+00
  0.6506E+00
  0.7254E+00
  0.7960E+00
  0.8617E+00
  0.9169E+00
  0.9252E+00
  0.9090E+00
  0.8168E+00
  0.6749E+00
  0.5659E+00
  0.5286E+00
  0.5588E+00
  0.6748E+00
  0.8654E+00
  0.1064E+01
  0.1120E+01
  0.1077E+01
  0.1108E+01
  0.2046E+01
  0.2046E+01
  0.2046E+01
  0.2046E+01
  0.2044E+01
  0.2039E+01
  0.2027E+01
  0.2004E+01
  0.1965E+01
  0.1912E+01
  0.1849E+01
  0.1780E+01
  0.1710E+01
  0.1640E+01
  0.1571E+01
  0.1504E+01
  0.1438E+01
  0.1375E+01
  0.1314E+01
  0.1255E+01
  0.1199E+01
  0.1145E+01
  0.1092E+01
  0.1042E+01
  0.9945E+00
  0.9485E+00
  0.9044E+00
  0.8621E+00
  0.8215E+00
  0.7825E+00
  0.7452E+00
  0.7094E+00
  0.6751E+00
  0.6420E+00
  0.6101E+00
  0.5788E+00
  0.5450E+00
  0.5247E+00
  0.5252E+00
  0.5421E+00
  0.5854E+00
  0.6497E+00
  0.7249E+00
  0.7962E+00
  0.8584E+00
  0.9062E+00
  0.9232E+00
  0.9099E+00
  0.8220E+00
  0.6800E+00
  0.5727E+00
  0.5290E+00
  0.5252E+00
  0.5446E+00
  0.6284E+00
  0.7929E+00
  0.9884E+00
  0.1111E+01
  0.1078E+01
  0.1071E+01
  0.1966E+01
  0.1966E+01
  0.1966E+01
  0.1965E+01
  0.1964E+01
  0.1960E+01
  0.1950E+01
  0.1929E+01
  0.1894E+01
  0.1845E+01
  0.1784E+01
  0.1718E+01
  0.1650E+01
  0.1582E+01
  0.1515E+01
  0.1450E+01
  0.1386E+01
  0.1325E+01
  0.1265E+01
  0.1208E+01
  0.1153E+01
  0.1100E+01
  0.1050E+01
  0.1001E+01
  0.9547E+00
  0.9100E+00
  0.8672E+00
  0.8262E+00
  0.7869E+00
  0.7491E+00
  0.7129E+00
  0.6783E+00
  0.6449E+00
  0.6126E+00
  0.5809E+00
  0.5466E+00
  0.5261E+00
  0.5262E+00
  0.5426E+00
  0.5879E+00
  0.6535E+00
  0.7273E+00
  0.7965E+00
  0.8578E+00
  0.9055E+00
  0.9159E+00
  0.9043E+00
  0.8227E+00
  0.6847E+00
  0.5792E+00
  0.5375E+00
  0.5293E+00
  0.5298E+00
  0.5421E+00
  0.5935E+00
  0.7171E+00
  0.8904E+00
  0.1050E+01
  0.1076E+01
  0.1048E+01
  0.1888E+01
  0.1888E+01
  0.1888E+01
  0.1888E+01
  0.1887E+01
  0.1883E+01
  0.1875E+01
  0.1857E+01
  0.1825E+01
  0.1779E+01
  0.1722E+01
  0.1658E+01
  0.1593E+01
  0.1526E+01
  0.1461E+01
  0.1398E+01
  0.1336E+01
  0.1276E+01
  0.1218E+01
  0.1163E+01
  0.1109E+01
  0.1058E+01
  0.1009E+01
  0.9618E+00
  0.9166E+00
  0.8733E+00
  0.8318E+00
  0.7920E+00
  0.7538E+00
  0.7172E+00
  0.6821E+00
  0.6482E+00
  0.6155E+00
  0.5833E+00
  0.5485E+00
  0.5277E+00
  0.5277E+00
  0.5437E+00
  0.5865E+00
  0.6535E+00
  0.7318E+00
  0.8023E+00
  0.8614E+00
  0.9056E+00
  0.9146E+00
  0.9021E+00
  0.8215E+00
  0.6870E+00
  0.5834E+00
  0.5434E+00
  0.5366E+00
  0.5368E+00
  0.5400E+00
  0.5480E+00
  0.5736E+00
  0.6512E+00
  0.7900E+00
  0.9482E+00
  0.1045E+01
  0.1065E+01
  0.1814E+01
  0.1814E+01
  0.1814E+01
  0.1814E+01
  0.1813E+01
  0.1810E+01
  0.1803E+01
  0.1787E+01
  0.1759E+01
  0.1716E+01
  0.1662E+01
  0.1601E+01
  0.1538E+01
  0.1474E+01
  0.1410E+01
  0.1348E+01
  0.1288E+01
  0.1230E+01
  0.1174E+01
  0.1120E+01
  0.1068E+01
  0.1018E+01
  0.9704E+00
  0.9246E+00
  0.8807E+00
  0.8386E+00
  0.7983E+00
  0.7596E+00
  0.7225E+00
  0.6868E+00
  0.6524E+00
  0.6192E+00
  0.5862E+00
  0.5512E+00
  0.5316E+00
  0.5306E+00
  0.5462E+00
  0.5907E+00
  0.6528E+00
  0.7283E+00
  0.8030E+00
  0.8656E+00
  0.9105E+00
  0.9159E+00
  0.9011E+00
  0.8184E+00
  0.6856E+00
  0.5845E+00
  0.5466E+00
  0.5418E+00
  0.5420E+00
  0.5455E+00
  0.5507E+00
  0.5547E+00
  0.5646E+00
  0.6028E+00
  0.6992E+00
  0.8368E+00
  0.9557E+00
  0.1106E+01
  0.1746E+01
  0.1746E+01
  0.1746E+01
  0.1746E+01
  0.1745E+01
  0.1743E+01
  0.1736E+01
  0.1723E+01
  0.1697E+01
  0.1658E+01
  0.1607E+01
  0.1548E+01
  0.1487E+01
  0.1425E+01
  0.1363E+01
  0.1303E+01
  0.1245E+01
  0.1188E+01
  0.1134E+01
  0.1081E+01
  0.1030E+01
  0.9819E+00
  0.9354E+00
  0.8907E+00
  0.8479E+00
  0.8068E+00
  0.7674E+00
  0.7296E+00
  0.6932E+00
  0.6582E+00
  0.6243E+00
  0.5901E+00
  0.5567E+00
  0.5389E+00
  0.5358E+00
  0.5511E+00
  0.5967E+00
  0.6628E+00
  0.7335E+00
  0.8001E+00
  0.8633E+00
  0.9115E+00
  0.9191E+00
  0.9031E+00
  0.8154E+00
  0.6810E+00
  0.5816E+00
  0.5461E+00
  0.5441E+00
  0.5451E+00
  0.5492E+00
  0.5543E+00
  0.5575E+00
  0.5582E+00
  0.5603E+00
  0.5758E+00
  0.6326E+00
  0.7430E+00
  0.8513E+00
  0.1088E+01
  0.1686E+01
  0.1686E+01
  0.1686E+01
  0.1686E+01
  0.1686E+01
  0.1684E+01
  0.1679E+01
  0.1667E+01
  0.1644E+01
  0.1608E+01
  0.1559E+01
  0.1504E+01
  0.1444E+01
  0.1384E+01
  0.1324E+01
  0.1265E+01
  0.1208E+01
  0.1153E+01
  0.1100E+01
  0.1048E+01
  0.9987E+00
  0.9512E+00
  0.9055E+00
  0.8617E+00
  0.8196E+00
  0.7792E+00
  0.7404E+00
  0.7030E+00
  0.6670E+00
  0.6316E+00
  0.5961E+00
  0.5666E+00
  0.5486E+00
  0.5444E+00
  0.5607E+00
  0.6061E+00
  0.6712E+00
  0.7463E+00
  0.8123E+00
  0.8648E+00
  0.9082E+00
  0.9201E+00
  0.9051E+00
  0.8161E+00
  0.6778E+00
  0.5783E+00
  0.5430E+00
  0.5423E+00
  0.5451E+00
  0.5508E+00
  0.5562E+00
  0.5592E+00
  0.5594E+00
  0.5589E+00
  0.5603E+00
  0.5679E+00
  0.5923E+00
  0.6456E+00
  0.7170E+00
  0.8844E+00
  0.1640E+01
  0.1640E+01
  0.1640E+01
  0.1640E+01
  0.1640E+01
  0.1638E+01
  0.1634E+01
  0.1623E+01
  0.1602E+01
  0.1568E+01
  0.1523E+01
  0.1469E+01
  0.1412E+01
  0.1353E+01
  0.1294E+01
  0.1237E+01
  0.1180E+01
  0.1126E+01
  0.1074E+01
  0.1023E+01
  0.9746E+00
  0.9277E+00
  0.8827E+00
  0.8392E+00
  0.7973E+00
  0.7569E+00
  0.7179E+00
  0.6801E+00
  0.6436E+00
  0.6106E+00
  0.5841E+00
  0.5640E+00
  0.5594E+00
  0.5762E+00
  0.6229E+00
  0.6864E+00
  0.7565E+00
  0.8228E+00
  0.8807E+00
  0.9184E+00
  0.9220E+00
  0.9064E+00
  0.8171E+00
  0.6757E+00
  0.5736E+00
  0.5376E+00
  0.5376E+00
  0.5424E+00
  0.5496E+00
  0.5562E+00
  0.5596E+00
  0.5599E+00
  0.5594E+00
  0.5599E+00
  0.5630E+00
  0.5639E+00
  0.5438E+00
  0.4996E+00
  0.4810E+00
  0.5287E+00
  0.1617E+01
  0.1617E+01
  0.1617E+01
  0.1617E+01
  0.1617E+01
  0.1616E+01
  0.1612E+01
  0.1604E+01
  0.1586E+01
  0.1556E+01
  0.1513E+01
  0.1461E+01
  0.1404E+01
  0.1346E+01
  0.1287E+01
  0.1230E+01
  0.1173E+01
  0.1118E+01
  0.1065E+01
  0.1013E+01
  0.9626E+00
  0.9146E+00
  0.8686E+00
  0.8244E+00
  0.7821E+00
  0.7417E+00
  0.7035E+00
  0.6679E+00
  0.6361E+00
  0.6077E+00
  0.5860E+00
  0.5822E+00
  0.5999E+00
  0.6465E+00
  0.7096E+00
  0.7766E+00
  0.8351E+00
  0.8861E+00
  0.9299E+00
  0.9338E+00
  0.9141E+00
  0.8223E+00
  0.6774E+00
  0.5693E+00
  0.5300E+00
  0.5303E+00
  0.5372E+00
  0.5463E+00
  0.5544E+00
  0.5592E+00
  0.5598E+00
  0.5594E+00
  0.5598E+00
  0.5626E+00
  0.5623E+00
  0.5418E+00
  0.4700E+00
  0.3829E+00
  0.3156E+00
  0.3047E+00
  0.1615E+01
  0.1615E+01
  0.1615E+01
  0.1615E+01
  0.1615E+01
  0.1614E+01
  0.1611E+01
  0.1603E+01
  0.1586E+01
  0.1556E+01
  0.1514E+01
  0.1463E+01
  0.1407E+01
  0.1348E+01
  0.1290E+01
  0.1232E+01
  0.1175E+01
  0.1119E+01
  0.1065E+01
  0.1013E+01
  0.9623E+00
  0.9136E+00
  0.8668E+00
  0.8222E+00
  0.7797E+00
  0.7396E+00
  0.7021E+00
  0.6680E+00
  0.6379E+00
  0.6156E+00
  0.6141E+00
  0.6332E+00
  0.6793E+00
  0.7394E+00
  0.8023E+00
  0.8560E+00
  0.8987E+00
  0.9317E+00
  0.9403E+00
  0.9260E+00
  0.8391E+00
  0.6879E+00
  0.5688E+00
  0.5219E+00
  0.5214E+00
  0.5293E+00
  0.5408E+00
  0.5509E+00
  0.5575E+00
  0.5592E+00
  0.5590E+00
  0.5596E+00
  0.5624E+00
  0.5618E+00
  0.5414E+00
  0.4712E+00
  0.3853E+00
  0.3115E+00
  0.2570E+00
  0.2329E+00
  0.1617E+01
  0.1617E+01
  0.1617E+01
  0.1617E+01
  0.1616E+01
  0.1615E+01
  0.1613E+01
  0.1606E+01
  0.1591E+01
  0.1564E+01
  0.1524E+01
  0.1474E+01
  0.1418E+01
  0.1360E+01
  0.1301E+01
  0.1242E+01
  0.1184E+01
  0.1128E+01
  0.1072E+01
  0.1019E+01
  0.9671E+00
  0.9173E+00
  0.8696E+00
  0.8245E+00
  0.7821E+00
  0.7425E+00
  0.7066E+00
  0.6755E+00
  0.6559E+00
  0.6571E+00
  0.6775E+00
  0.7217E+00
  0.7775E+00
  0.8327E+00
  0.8791E+00
  0.9164E+00
  0.9446E+00
  0.9497E+00
  0.9354E+00
  0.8589E+00
  0.7078E+00
  0.5756E+00
  0.5162E+00
  0.5127E+00
  0.5199E+00
  0.5331E+00
  0.5456E+00
  0.5543E+00
  0.5580E+00
  0.5586E+00
  0.5596E+00
  0.5624E+00
  0.5616E+00
  0.5405E+00
  0.4696E+00
  0.3845E+00
  0.3127E+00
  0.2607E+00
  0.2265E+00
  0.2102E+00
  0.1626E+01
  0.1626E+01
  0.1626E+01
  0.1626E+01