# vtk DataFile Version 3.0
vtk output
ASCII
DATASET RECTILINEAR_GRID
DIMENSIONS          61          61 1
X_COORDINATES    61 double
  0.0000E+00
  0.1667E+00
  0.3333E+00
  0.5000E+00
  0.6667E+00
  0.8333E+00
  0.1000E+01
  0.1167E+01
  0.1333E+01
  0.1500E+01
  0.1667E+01
  0.1833E+01
  0.2000E+01
  0.2167E+01
  0.2333E+01
  0.2500E+01
  0.2667E+01
  0.2833E+01
  0.3000E+01
  0.3167E+01
  0.3333E+01
  0.3500E+01
  0.3667E+01
  0.3833E+01
  0.4000E+01
  0.4167E+01
  0.4333E+01
  0.4500E+01
  0.4667E+01
  0.4833E+01
  0.5000E+01
  0.5167E+01
  0.5333E+01
  0.5500E+01
  0.5667E+01
  0.5833E+01
  0.6000E+01
  0.6167E+01
  0.6333E+01
  0.6500E+01
  0.6667E+01
  0.6833E+01
  0.7000E+01
  0.7167E+01
  0.7333E+01
  0.7500E+01
  0.7667E+01
  0.7833E+01
  0.8000E+01
  0.8167E+01
  0.8333E+01
  0.8500E+01
  0.8667E+01
  0.8833E+01
  0.9000E+01
  0.9167E+01
  0.9333E+01
  0.9500E+01
  0.9667E+01
  0.9833E+01
  0.1000E+02
Y_COORDINATES    61 double
  0.0000E+00
  0.1667E+00
  0.3333E+00
  0.5000E+00
  0.6667E+00
  0.8333E+00
  0.1000E+01
  0.1167E+01
  0.1333E+01
  0.1500E+01
  0.1667E+01
  0.1833E+01
  0.2000E+01
  0.2167E+01
  0.2333E+01
  0.2500E+01
  0.2667E+01
  0.2833E+01
  0.3000E+01
  0.3167E+01
  0.3333E+01
  0.3500E+01
  0.3667E+01
  0.3833E+01
  0.4000E+01
  0.4167E+01
  0.4333E+01
  0.4500E+01
  0.4667E+01
  0.4833E+01
  0.5000E+01
  0.5167E+01
  0.5333E+01
  0.5500E+01
  0.5667E+01
  0.5833E+01
  0.6000E+01
  0.6167E+01
  0.6333E+01
  0.6500E+01
  0.6667E+01
  0.6833E+01
  0.7000E+01
  0.7167E+01
  0.7333E+01
  0.7500E+01
  0.7667E+01
  0.7833E+01
  0.8000E+01
  0.8167E+01
  0.8333E+01
  0.8500E+01
  0.8667E+01
  0.8833E+01
  0.9000E+01
  0.9167E+01
  0.9333E+01
  0.9500E+01
  0.9667E+01
  0.9833E+01
  0.1000E+02
Z_COORDINATES 1 double
0
CELL_DATA                 3600
FIELD FieldData 4
density 1                 3600 double
  0.8991E+01
  0.8991E+01
  0.8991E+01
  0.8991E+01
  0.8991E+01
  0.8991E+01
  0.8991E+01
  0.8991E+01
  0.8991E+01
  0.8991E+01
  0.8991E+01
  0.8991E+01
  0.8991E+01
  0.8991E+01
  0.8991E+01
  0.8991E+01
  0.8991E+01
  0.8990E+01
  0.8984E+01
  0.8952E+01
  0.8835E+01
  0.8545E+01
  0.8041E+01
  0.7392E+01
  0.6700E+01
  0.6032E+01
  0.5419E+01
  0.4869E+01
  0.4375E+01
  0.3924E+01
  0.3510E+01
  0.3140E+01
  0.2816E+01
  0.2535E+01
  0.2292E+01
  0.2079E+01
  0.1877E+01
  0.1703E+01
  0.1590E+01
  0.1496E+01
  0.1343E+01
  0.1124E+01
  0.9204E+00
  0.8201E+00
  0.7857E+00
  0.6904E+00
  0.4614E+00
  0.2776E+00
  0.2084E+00
  0.2001E+00
  0.2000E+00
  0.2000E+00
  0.2000E+00
  0.2000E+00
  0.2000E+00
  0.2000E+00
  0.2000E+00
  0.2000E+00
  0.2000E+00
  0.2000E+00
  0.8960E+01
  0.8960E+01
  0.8960E+01
  0.8960E+01
  0.8960E+01
  0.8960E+01
  0.8960E+01
  0.8960E+01
  0.8960E+01
  0.8960E+01
  0.8960E+01
  0.8960E+01
  0.8960E+01
  0.8960E+01
  0.8960E+01
  0.8960E+01
  0.8960E+01
  0.8959E+01
  0.8953E+01
  0.8921E+01
  0.8805E+01
  0.8517E+01
  0.8015E+01
  0.7370E+01
  0.6682E+01
  0.6017E+01
  0.5407E+01
  0.4860E+01
  0.4368E+01
  0.3919E+01
  0.3506E+01
  0.3137E+01
  0.2814E+01
  0.2534E+01
  0.2291E+01
  0.2079E+01
  0.1876E+01
  0.1702E+01
  0.1589E+01
  0.1495E+01
  0.1342E+01
  0.1123E+01
  0.9191E+00
  0.8184E+00
  0.7837E+00
  0.6883E+00
  0.4601E+00
  0.2772E+00
  0.2083E+00
  0.2000E+00
  0.2000E+00
  0.2000E+00
  0.2000E+00
  0.2000E+00
  0.2000E+00
  0.2000E+00
  0.2000E+00
  0.2000E+00
  0.2000E+00
  0.2000E+00
  0.8843E+01
  0.8843E+01
  0.8843E+01
  0.8843E+01
  0.8843E+01
  0.8843E+01
  0.8843E+01
  0.8843E+01
  0.8843E+01
  0.8843E+01
  0.8843E+01
  0.8843E+01
  0.8843E+01
  0.8843E+01
  0.8843E+01
  0.8843E+01
  0.8843E+01
  0.8842E+01
  0.8836E+01
  0.8805E+01
  0.8692E+01
  0.8411E+01
  0.7919E+01
  0.7286E+01
  0.6610E+01
  0.5957E+01
  0.5358E+01
  0.4821E+01
  0.4337E+01
  0.3894E+01
  0.3487E+01
  0.3122E+01
  0.2804E+01
  0.2526E+01
  0.2285E+01
  0.2075E+01
  0.1873E+01
  0.1700E+01
  0.1587E+01
  0.1493E+01
  0.1339E+01
  0.1118E+01
  0.9137E+00
  0.8121E+00
  0.7770E+00
  0.6815E+00
  0.4559E+00
  0.2760E+00
  0.2081E+00
  0.2000E+00
  0.2000E+00
  0.2000E+00
  0.2000E+00
  0.2000E+00
  0.2000E+00
  0.2000E+00
  0.2000E+00
  0.2000E+00
  0.2000E+00
  0.2000E+00
  0.8553E+01
  0.8553E+01
  0.8553E+01
  0.8553E+01
  0.8553E+01
  0.8553E+01
  0.8553E+01
  0.8553E+01
  0.8553E+01
  0.8553E+01
  0.8553E+01
  0.8553E+01
  0.8553E+01
  0.8553E+01
  0.8553E+01
  0.8553E+01
  0.8553E+01
  0.8552E+01
  0.8546E+01
  0.8517E+01
  0.8411E+01
  0.8143E+01
  0.7674E+01
  0.7066E+01
  0.6419E+01
  0.5792E+01
  0.5218E+01
  0.4703E+01
  0.4239E+01
  0.3814E+01
  0.3422E+01
  0.3071E+01
  0.2763E+01
  0.2495E+01
  0.2261E+01
  0.2057E+01
  0.1860E+01
  0.1689E+01
  0.1577E+01
  0.1482E+01
  0.1326E+01
  0.1104E+01
  0.8989E+00
  0.7973E+00
  0.7624E+00
  0.6680E+00
  0.4476E+00
  0.2734E+00
  0.2076E+00
  0.2000E+00
  0.2000E+00
  0.2000E+00
  0.2000E+00
  0.2000E+00
  0.2000E+00
  0.2000E+00
  0.2000E+00
  0.2000E+00
  0.2000E+00
  0.2000E+00
  0.8047E+01
  0.8047E+01
  0.8047E+01
  0.8047E+01
  0.8047E+01
  0.8047E+01
  0.8047E+01
  0.8047E+01
  0.8047E+01
  0.8047E+01
  0.8047E+01
  0.8047E+01
  0.8047E+01
  0.8047E+01
  0.8047E+01
  0.8047E+01
  0.8047E+01
  0.8047E+01
  0.8042E+01
  0.8016E+01
  0.7919E+01
  0.7674E+01
  0.7238E+01
  0.6670E+01
  0.6064E+01
  0.5478E+01
  0.4942E+01
  0.4462E+01
  0.4031E+01
  0.3635E+01
  0.3271E+01
  0.2945E+01
  0.2659E+01
  0.2409E+01
  0.2192E+01
  0.2000E+01
  0.1814E+01
  0.1651E+01
  0.1542E+01
  0.1447E+01
  0.1291E+01
  0.1071E+01
  0.8706E+00
  0.7736E+00
  0.7410E+00
  0.6482E+00
  0.4344E+00
  0.2690E+00
  0.2068E+00
  0.2000E+00
  0.2000E+00
  0.2000E+00
  0.2000E+00
  0.2000E+00
  0.2000E+00
  0.2000E+00
  0.2000E+00
  0.2000E+00
  0.2000E+00
  0.2000E+00
  0.7397E+01
  0.7397E+01
  0.7397E+01
  0.7397E+01
  0.7397E+01
  0.7397E+01
  0.7397E+01
  0.7397E+01
  0.7397E+01
  0.7397E+01
  0.7397E+01
  0.7397E+01
  0.7397E+01
  0.7397E+01
  0.7397E+01
  0.7397E+01
  0.7397E+01
  0.7396E+01
  0.7392E+01
  0.7370E+01
  0.7286E+01
  0.7066E+01
  0.6670E+01
  0.6148E+01
  0.5589E+01
  0.5048E+01
  0.4554E+01
  0.4113E+01
  0.3718E+01
  0.3358E+01
  0.3026E+01
  0.2730E+01
  0.2472E+01
  0.2248E+01
  0.2053E+01
  0.1881E+01
  0.1712E+01
  0.1561E+01
  0.1460E+01
  0.1369E+01
  0.1221E+01
  0.1015E+01
  0.8312E+00
  0.7459E+00
  0.7163E+00
  0.6228E+00
  0.4158E+00
  0.2621E+00
  0.2055E+00
  0.2000E+00
  0.2000E+00
  0.2000E+00
  0.2000E+00
  0.2000E+00
  0.2000E+00
  0.2000E+00
  0.2000E+00
  0.2000E+00
  0.2000E+00
  0.2000E+00
  0.6705E+01
  0.6705E+01
  0.6705E+01
  0.6705E+01
  0.6705E+01
  0.6705E+01
  0.6705E+01
  0.6705E+01
  0.6705E+01
  0.6705E+01
  0.6705E+01
  0.6705E+01
  0.6705E+01
  0.6705E+01
  0.6705E+01
  0.6705E+01
  0.6705E+01
  0.6704E+01
  0.6701E+01
  0.6682E+01
  0.6610E+01
  0.6418E+01
  0.6064E+01
  0.5589E+01
  0.5075E+01
  0.4577E+01
  0.4123E+01
  0.3719E+01
  0.3358E+01
  0.3029E+01
  0.2729E+01
  0.2462E+01
  0.2231E+01
  0.2029E+01
  0.1856E+01
  0.1703E+01
  0.1552E+01
  0.1417E+01
  0.1328E+01
  0.1249E+01
  0.1121E+01
  0.9437E+00
  0.7876E+00
  0.7173E+00
  0.6896E+00
  0.5913E+00
  0.3921E+00
  0.2529E+00
  0.2040E+00
  0.2000E+00
  0.2000E+00
  0.2000E+00
  0.2000E+00
  0.2000E+00
  0.2000E+00
  0.2000E+00
  0.2000E+00
  0.2000E+00
  0.2000E+00
  0.2000E+00
  0.6036E+01
  0.6036E+01
  0.6036E+01
  0.6036E+01
  0.6036E+01
  0.6036E+01
  0.6036E+01
  0.6036E+01
  0.6036E+01
  0.6036E+01
  0.6036E+01
  0.6036E+01
  0.6036E+01
  0.6036E+01
  0.6036E+01
  0.6036E+01
  0.6035E+01
  0.6035E+01
  0.6032E+01
  0.6017E+01
  0.5957E+01
  0.5792E+01
  0.5478E+01
  0.5047E+01
  0.4577E+01
  0.4119E+01
  0.3701E+01
  0.3330E+01
  0.2999E+01
  0.2699E+01
  0.2426E+01
  0.2184E+01
  0.1975E+01
  0.1794E+01
  0.1638E+01
  0.1500E+01
  0.1365E+01
  0.1247E+01
  0.1172E+01
  0.1113E+01
  0.1014E+01
  0.8703E+00
  0.7436E+00
  0.6903E+00
  0.6629E+00
  0.5535E+00
  0.3638E+00
  0.2418E+00
  0.2026E+00
  0.2000E+00
  0.2000E+00
  0.2000E+00
  0.2000E+00
  0.2000E+00
  0.2000E+00
  0.2000E+00
  0.2000E+00
  0.2000E+00
  0.2000E+00
  0.2000E+00
  0.5422E+01
  0.5422E+01
  0.5422E+01
  0.5422E+01
  0.5422E+01
  0.5422E+01
  0.5422E+01
  0.5422E+01
  0.5422E+01
  0.5422E+01
  0.5422E+01
  0.5422E+01
  0.5422E+01
  0.5422E+01
  0.5422E+01
  0.5422E+01
  0.5422E+01
  0.5421E+01
  0.5419E+01
  0.5407E+01
  0.5358E+01
  0.5218E+01
  0.4941E+01
  0.4553E+01
  0.4123E+01
  0.3701E+01
  0.3315E+01
  0.2973E+01
  0.2669E+01
  0.2393E+01
  0.2144E+01
  0.1924E+01
  0.1734E+01
  0.1569E+01
  0.1427E+01
  0.1302E+01
  0.1179E+01
  0.1077E+01
  0.1021E+01
  0.9878E+00
  0.9214E+00
  0.8051E+00
  0.7032E+00
  0.6667E+00
  0.6342E+00
  0.5064E+00
  0.3324E+00
  0.2298E+00
  0.2014E+00
  0.2000E+00
  0.2000E+00
  0.2000E+00
  0.2000E+00
  0.2000E+00
  0.2000E+00
  0.2000E+00
  0.2000E+00
  0.2000E+00
  0.2000E+00
  0.2000E+00
  0.4871E+01
  0.4871E+01
  0.4871E+01
  0.4871E+01
  0.4871E+01
  0.4871E+01
  0.4871E+01
  0.4871E+01
  0.4871E+01
  0.4871E+01
  0.4871E+01
  0.4871E+01
  0.4871E+01
  0.4871E+01
  0.4871E+01
  0.4871E+01
  0.4871E+01
  0.4871E+01
  0.4870E+01
  0.4860E+01
  0.4820E+01
  0.4702E+01
  0.4461E+01
  0.4112E+01
  0.3718E+01
  0.3329E+01
  0.2973E+01
  0.2658E+01
  0.2378E+01
  0.2125E+01
  0.1896E+01
  0.1695E+01
  0.1522E+01
  0.1371E+01
  0.1242E+01
  0.1127E+01
  0.1015E+01
  0.9305E+00
  0.9025E+00
  0.8949E+00
  0.8557E+00
  0.7490E+00
  0.6664E+00
  0.6401E+00
  0.5961E+00
  0.4532E+00
  0.3003E+00
  0.2187E+00
  0.2006E+00
  0.2000E+00
  0.2000E+00
  0.2000E+00
  0.2000E+00
  0.2000E+00
  0.2000E+00
  0.2000E+00
  0.2000E+00
  0.2000E+00
  0.2000E+00
  0.2000E+00
  0.4377E+01
  0.4377E+01
  0.4377E+01
  0.4377E+01
  0.4377E+01
  0.4377E+01
  0.4377E+01
  0.4377E+01
  0.4377E+01
  0.4377E+01
  0.4377E+01
  0.4377E+01
  0.4377E+01
  0.4377E+01
  0.4377E+01
  0.4377E+01
  0.4377E+01
  0.4377E+01
  0.4376E+01
  0.4368E+01
  0.4337E+01
  0.4239E+01
  0.4030E+01
  0.3718E+01
  0.3357E+01
  0.2999E+01
  0.2669E+01
  0.2378E+01
  0.2120E+01
  0.1887E+01
  0.1677E+01
  0.1494E+01
  0.1335E+01
  0.1197E+01
  0.1078E+01
  0.9725E+00
  0.8700E+00
  0.8179E+00
  0.8239E+00
  0.8383E+00
  0.8001E+00
  0.6925E+00
  0.6324E+00
  0.6129E+00
  0.5466E+00
  0.3969E+00
  0.2694E+00
  0.2100E+00
  0.2002E+00
  0.2000E+00
  0.2000E+00
  0.2000E+00
  0.2000E+00
  0.2000E+00
  0.2000E+00
  0.2000E+00
  0.2000E+00
  0.2000E+00
  0.2000E+00
  0.2000E+00
  0.3925E+01
  0.3925E+01
  0.3925E+01
  0.3925E+01
  0.3925E+01
  0.3925E+01
  0.3925E+01
  0.3925E+01
  0.3925E+01
  0.3925E+01
  0.3925E+01
  0.3925E+01
  0.3925E+01
  0.3925E+01
  0.3925E+01
  0.3925E+01
  0.3925E+01
  0.3925E+01
  0.3924E+01
  0.3919E+01
  0.3894E+01
  0.3813E+01
  0.3635E+01
  0.3357E+01
  0.3029E+01
  0.2698E+01
  0.2393E+01
  0.2124E+01
  0.1887E+01
  0.1672E+01
  0.1480E+01
  0.1313E+01
  0.1168E+01
  0.1042E+01
  0.9357E+00
  0.8357E+00
  0.7573E+00
  0.7501E+00
  0.7911E+00
  0.7988E+00
  0.7265E+00
  0.6302E+00
  0.6042E+00
  0.5805E+00
  0.4846E+00
  0.3420E+00
  0.2423E+00
  0.2044E+00
  0.2001E+00
  0.2000E+00
  0.2000E+00
  0.2000E+00
  0.2000E+00
  0.2000E+00
  0.2000E+00
  0.2000E+00
  0.2000E+00
  0.2000E+00
  0.2000E+00
  0.2000E+00
  0.3511E+01
  0.3511E+01
  0.3511E+01
  0.3511E+01
  0.3511E+01
  0.3511E+01
  0.3511E+01
  0.3511E+01
  0.3511E+01
  0.3511E+01
  0.3511E+01
  0.3511E+01
  0.3511E+01
  0.3511E+01
  0.3511E+01
  0.3511E+01
  0.3511E+01
  0.3511E+01
  0.3510E+01
  0.3506E+01
  0.3487E+01
  0.3422E+01
  0.3271E+01
  0.3026E+01
  0.2728E+01
  0.2425E+01
  0.2143E+01
  0.1896E+01
  0.1677E+01
  0.1480E+01
  0.1305E+01
  0.1154E+01
  0.1022E+01
  0.9091E+00
  0.8113E+00
  0.7195E+00
  0.6994E+00
  0.7374E+00
  0.7794E+00
  0.7389E+00
  0.6321E+00
  0.5841E+00
  0.5765E+00
  0.5353E+00
  0.4139E+00
  0.2930E+00
  0.2218E+00
  0.2015E+00
  0.2000E+00
  0.2000E+00
  0.2000E+00
  0.2000E+00
  0.2000E+00
  0.2000E+00
  0.2000E+00
  0.2000E+00
  0.2000E+00
  0.2000E+00
  0.2000E+00
  0.2000E+00
  0.3140E+01
  0.3140E+01
  0.3140E+01
  0.3140E+01
  0.3140E+01
  0.3140E+01
  0.3140E+01
  0.3140E+01
  0.3140E+01
  0.3140E+01
  0.3140E+01
  0.3140E+01
  0.3140E+01
  0.3140E+01
  0.3140E+01
  0.3140E+01
  0.3140E+01
  0.3140E+01
  0.3140E+01
  0.3137E+01
  0.3122E+01
  0.3071E+01
  0.2944E+01
  0.2730E+01
  0.2462E+01
  0.2184E+01
  0.1924E+01
  0.1695E+01
  0.1493E+01
  0.1313E+01
  0.1154E+01
  0.1016E+01
  0.8967E+00
  0.7950E+00
  0.6981E+00
  0.6718E+00
  0.6996E+00
  0.7517E+00
  0.7398E+00
  0.6438E+00
  0.5724E+00
  0.5637E+00
  0.5471E+00
  0.4661E+00
  0.3460E+00
  0.2534E+00
  0.2091E+00
  0.2004E+00
  0.2000E+00
  0.2000E+00
  0.2000E+00
  0.2000E+00
  0.2000E+00
  0.2000E+00
  0.2000E+00
  0.2000E+00
  0.2000E+00
  0.2000E+00
  0.2000E+00
  0.2000E+00
  0.2817E+01
  0.2817E+01
  0.2817E+01
  0.2817E+01
  0.2817E+01
  0.2817E+01
  0.2817E+01
  0.2817E+01
  0.2817E+01
  0.2817E+01
  0.2817E+01
  0.2817E+01
  0.2817E+01
  0.2817E+01
  0.2817E+01
  0.2817E+01
  0.2817E+01
  0.2817E+01
  0.2816E+01
  0.2814E+01
  0.2804E+01
  0.2763E+01
  0.2658E+01
  0.2472E+01
  0.2230E+01
  0.1975E+01
  0.1734E+01
  0.1522E+01
  0.1335E+01
  0.1168E+01
  0.1022E+01
  0.8965E+00
  0.7903E+00
  0.6924E+00
  0.6647E+00
  0.6804E+00
  0.7338E+00
  0.7360E+00
  0.6616E+00
  0.5709E+00
  0.5520E+00
  0.5443E+00
  0.4947E+00
  0.3885E+00
  0.2888E+00
  0.2256E+00
  0.2029E+00
  0.2001E+00
  0.2000E+00
  0.2000E+00
  0.2000E+00
  0.2000E+00
  0.2000E+00
  0.2000E+00
  0.2000E+00
  0.2000E+00
  0.2000E+00
  0.2000E+00
  0.2000E+00
  0.2000E+00
  0.2535E+01
  0.2535E+01
  0.2535E+01
  0.2535E+01
  0.2535E+01
  0.2535E+01
  0.2535E+01
  0.2535E+01
  0.2535E+01
  0.2535E+01
  0.2535E+01
  0.2535E+01
  0.2535E+01
  0.2535E+01
  0.2535E+01
  0.2535E+01
  0.2535E+01
  0.2535E+01
  0.2535E+01
  0.2534E+01
  0.2526E+01
  0.2494E+01
  0.2409E+01
  0.2247E+01
  0.2029E+01
  0.1794E+01
  0.1569E+01
  0.1371E+01
  0.1196E+01
  0.1042E+01
  0.9090E+00
  0.7953E+00
  0.6923E+00
  0.6597E+00
  0.6677E+00
  0.7194E+00
  0.7371E+00
  0.6877E+00
  0.5874E+00
  0.5441E+00
  0.5364E+00
  0.5042E+00
  0.4169E+00
  0.3191E+00
  0.2467E+00
  0.2097E+00
  0.2007E+00
  0.2000E+00
  0.2000E+00
  0.2000E+00
  0.2000E+00
  0.2000E+00
  0.2000E+00
  0.2000E+00
  0.2000E+00
  0.2000E+00
  0.2000E+00
  0.2000E+00
  0.2000E+00
  0.2000E+00
  0.2292E+01
  0.2292E+01
  0.2292E+01
  0.2292E+01
  0.2292E+01
  0.2292E+01
  0.2292E+01
  0.2292E+01
  0.2292E+01
  0.2292E+01
  0.2292E+01
  0.2292E+01
  0.2292E+01
  0.2292E+01
  0.2292E+01
  0.2292E+01
  0.2292E+01
  0.2292E+01
  0.2292E+01
  0.2291E+01
  0.2285E+01
  0.2261E+01
  0.2191E+01
  0.2052E+01
  0.1855E+01
  0.1637E+01
  0.1427E+01
  0.1242E+01
  0.1078E+01
  0.9353E+00
  0.8110E+00
  0.6982E+00
  0.6647E+00
  0.6700E+00
  0.7020E+00
  0.7320E+00
  0.7102E+00
  0.6165E+00
  0.5516E+00
  0.5334E+00
  0.5032E+00
  0.4315E+00
  0.3410E+00
  0.2661E+00
  0.2198E+00
  0.2027E+00
  0.2001E+00
  0.2000E+00
  0.2000E+00
  0.2000E+00
  0.2000E+00
  0.2000E+00
  0.2000E+00
  0.2000E+00
  0.2000E+00
  0.2000E+00
  0.2000E+00
  0.2000E+00
  0.2000E+00
  0.2000E+00
  0.2080E+01
  0.2080E+01
  0.2080E+01
  0.2080E+01
  0.2080E+01
  0.2080E+01
  0.2080E+01
  0.2080E+01
  0.2080E+01
  0.2080E+01
  0.2080E+01
  0.2080E+01
  0.2080E+01
  0.2080E+01
  0.2080E+01
  0.2080E+01
  0.2080E+01
  0.2080E+01
  0.2079E+01
  0.2079E+01
  0.2075E+01
  0.2057E+01
  0.2000E+01
  0.1880E+01
  0.1702E+01
  0.1500E+01
  0.1301E+01
  0.1126E+01
  0.9722E+00
  0.8357E+00
  0.7181E+00
  0.6716E+00
  0.6811E+00
  0.7225E+00
  0.7355E+00
  0.7158E+00
  0.6355E+00
  0.5648E+00
  0.5340E+00
  0.5025E+00
  0.4362E+00
  0.3537E+00
  0.2811E+00
  0.2306E+00
  0.2064E+00
  0.2005E+00
  0.2000E+00
  0.2000E+00
  0.2000E+00
  0.2000E+00
  0.2000E+00
  0.2000E+00
  0.2000E+00
  0.2000E+00
  0.2000E+00
  0.2000E+00
  0.2000E+00
  0.2000E+00
  0.2000E+00
  0.2000E+00
  0.1877E+01
  0.1877E+01
  0.1877E+01
  0.1877E+01
  0.1877E+01
  0.1877E+01
  0.1877E+01
  0.1877E+01
  0.1877E+01
  0.1877E+01
  0.1877E+01
  0.1877E+01
  0.1877E+01
  0.1877E+01
  0.1877E+01
  0.1877E+01
  0.1877E+01
  0.1877E+01
  0.1877E+01
  0.1876E+01
  0.1873E+01
  0.1859E+01
  0.1814E+01
  0.1711E+01
  0.1551E+01
  0.1364E+01
  0.1179E+01
  0.1015E+01
  0.8696E+00
  0.7563E+00
  0.6947E+00
  0.7009E+00
  0.7313E+00
  0.7357E+00
  0.7102E+00
  0.6335E+00
  0.5678E+00
  0.5343E+00
  0.5003E+00
  0.4364E+00
  0.3580E+00
  0.2904E+00
  0.2398E+00
  0.2109E+00
  0.2014E+00
  0.2001E+00
  0.2000E+00
  0.2000E+00
  0.2000E+00
  0.2000E+00
  0.2000E+00
  0.2000E+00
  0.2000E+00
  0.2000E+00
  0.2000E+00
  0.2000E+00
  0.2000E+00
  0.2000E+00
  0.2000E+00
  0.2000E+00
  0.1703E+01
  0.1703E+01
  0.1703E+01
  0.1703E+01
  0.1703E+01
  0.1703E+01
  0.1703E+01
  0.1703E+01
  0.1703E+01
  0.1703E+01
  0.1703E+01
  0.1703E+01
  0.1703E+01
  0.1703E+01
  0.1703E+01
  0.1703E+01
  0.1703E+01
  0.1703E+01
  0.1703E+01
  0.1702E+01
  0.1700E+01
  0.1689E+01
  0.1650E+01
  0.1561E+01
  0.1417E+01
  0.1246E+01
  0.1077E+01
  0.9310E+00
  0.8184E+00
  0.7452E+00
  0.7392E+00
  0.7518E+00
  0.7384E+00
  0.6884E+00
  0.6126E+00
  0.5585E+00
  0.5331E+00
  0.5015E+00
  0.4379E+00
  0.3598E+00
  0.2942E+00
  0.2462E+00
  0.2153E+00
  0.2028E+00
  0.2002E+00
  0.2000E+00
  0.2000E+00
  0.2000E+00
  0.2000E+00
  0.2000E+00
  0.2000E+00
  0.2000E+00
  0.2000E+00
  0.2000E+00
  0.2000E+00
  0.2000E+00
  0.2000E+00
  0.2000E+00
  0.2000E+00
  0.2000E+00
  0.1590E+01
  0.1590E+01
  0.1590E+01
  0.1590E+01
  0.1590E+01
  0.1590E+01
  0.1590E+01
  0.1590E+01
  0.1590E+01
  0.1590E+01
  0.1590E+01
  0.1590E+01
  0.1590E+01
  0.1590E+01
  0.1590E+01
  0.1590E+01
  0.1590E+01
  0.1590E+01
  0.1590E+01
  0.1589E+01
  0.1587E+01
  0.1577E+01
  0.1542E+01
  0.1460E+01
  0.1327E+01
  0.1172E+01
  0.1022E+01
  0.9031E+00
  0.8228E+00
  0.7891E+00
  0.7744E+00
  0.7412E+00
  0.6658E+00
  0.5932E+00
  0.5509E+00
  0.5292E+00
  0.4982E+00
  0.4379E+00
  0.3612E+00
  0.2956E+00
  0.2491E+00
  0.2188E+00
  0.2043E+00
  0.2005E+00
  0.2000E+00
  0.2000E+00
  0.2000E+00
  0.2000E+00
  0.2000E+00
  0.2000E+00
  0.2000E+00
  0.2000E+00
  0.2000E+00
  0.2000E+00
  0.2000E+00
  0.2000E+00
  0.2000E+00
  0.2000E+00
  0.2000E+00
  0.2000E+00
  0.1496E+01
  0.1496E+01
  0.1496E+01
  0.1496E+01
  0.1496E+01
  0.1496E+01
  0.1496E+01
  0.1496E+01
  0.1496E+01
  0.1496E+01
  0.1496E+01
  0.1496E+01
  0.1496E+01
  0.1496E+01
  0.1496E+01
  0.1496E+01
  0.1496E+01
  0.1496E+01
  0.1496E+01
  0.1495E+01
  0.1493E+01
  0.1482E+01
  0.1447E+01
  0.1369E+01
  0.1249E+01
  0.1112E+01
  0.9883E+00
  0.8952E+00
  0.8377E+00
  0.7970E+00
  0.7379E+00
  0.6433E+00
  0.5738E+00
  0.5506E+00
  0.5367E+00
  0.5030E+00
  0.4367E+00
  0.3599E+00
  0.2954E+00
  0.2495E+00
  0.2204E+00
  0.2056E+00
  0.2008E+00
  0.2001E+00
  0.2000E+00
  0.2000E+00
  0.2000E+00
  0.2000E+00
  0.2000E+00
  0.2000E+00
  0.2000E+00
  0.2000E+00
  0.2000E+00
  0.2000E+00
  0.2000E+00
  0.2000E+00
  0.2000E+00
  0.2000E+00
  0.2000E+00
  0.2000E+00
  0.1343E+01
  0.1343E+01
  0.1343E+01
  0.1343E+01
  0.1343E+01
  0.1343E+01
  0.1343E+01
  0.1343E+01
  0.1343E+01
  0.1343E+01
  0.1343E+01
  0.1343E+01
  0.1343E+01
  0.1343E+01
  0.1343E+01
  0.1343E+01
  0.1343E+01
  0.1343E+01
  0.1343E+01
  0.1342E+01
  0.1339E+01
  0.1326E+01
  0.1290E+01
  0.1220E+01
  0.1121E+01
  0.1014E+01
  0.9218E+00
  0.8572E+00
  0.7999E+00
  0.7231E+00
  0.6332E+00
  0.5691E+00
  0.5508E+00
  0.5396E+00
  0.5075E+00
  0.4389E+00
  0.3590E+00
  0.2944E+00
  0.2492E+00
  0.2205E+00
  0.2061E+00
  0.2011E+00
  0.2001E+00
  0.2000E+00
  0.2000E+00
  0.2000E+00
  0.2000E+00
  0.2000E+00
  0.2000E+00
  0.2000E+00
  0.2000E+00
  0.2000E+00
  0.2000E+00
  0.2000E+00
  0.2000E+00
  0.2000E+00
  0.2000E+00
  0.2000E+00
  0.2000E+00
  0.2000E+00
  0.1124E+01
  0.1124E+01
  0.1124E+01
  0.1124E+01
  0.1124E+01
  0.1124E+01
  0.1124E+01
  0.1124E+01
  0.1124E+01
  0.1124E+01
  0.1124E+01
  0.1124E+01
  0.1124E+01
  0.1124E+01
  0.1124E+01
  0.1124E+01
  0.1124E+01
  0.1124E+01
  0.1124E+01
  0.1123E+01
  0.1118E+01
  0.1104E+01
  0.1070E+01
  0.1014E+01
  0.9434E+00
  0.8703E+00
  0.8056E+00
  0.7495E+00
  0.6924E+00
  0.6274E+00
  0.5855E+00
  0.5612E+00
  0.5418E+00
  0.5014E+00
  0.4324E+00
  0.3547E+00
  0.2905E+00
  0.2461E+00
  0.2188E+00
  0.2056E+00
  0.2011E+00
  0.2001E+00
  0.2000E+00
  0.2000E+00
  0.2000E+00
  0.2000E+00
  0.2000E+00
  0.2000E+00
  0.2000E+00
  0.2000E+00
  0.2000E+00
  0.2000E+00
  0.2000E+00
  0.2000E+00
  0.2000E+00
  0.2000E+00
  0.2000E+00
  0.2000E+00
  0.2000E+00
  0.2000E+00
  0.9208E+00
  0.9208E+00
  0.9208E+00
  0.9208E+00
  0.9208E+00
  0.9208E+00
  0.9208E+00
  0.9208E+00
  0.9208E+00
  0.9208E+00
  0.9208E+00
  0.9208E+00
  0.9208E+00
  0.9208E+00
  0.9208E+00
  0.9208E+00
  0.9208E+00
  0.9207E+00
  0.9205E+00
  0.9191E+00
  0.9136E+00
  0.8986E+00
  0.8703E+00
  0.8309E+00
  0.7875E+00
  0.7437E+00
  0.7037E+00
  0.6667E+00
  0.6325E+00
  0.6024E+00
  0.5759E+00
  0.5476E+00
  0.4921E+00
  0.4150E+00
  0.3402E+00
  0.2808E+00
  0.2394E+00
  0.2151E+00
  0.2042E+00
  0.2008E+00
  0.2001E+00
  0.2000E+00
  0.2000E+00
  0.2000E+00
  0.2000E+00
  0.2000E+00
  0.2000E+00
  0.2000E+00
  0.2000E+00
  0.2000E+00
  0.2000E+00
  0.2000E+00
  0.2000E+00
  0.2000E+00
  0.2000E+00
  0.2000E+00
  0.2000E+00
  0.2000E+00
  0.2000E+00
  0.2000E+00
  0.8205E+00
  0.8205E+00
  0.8205E+00
  0.8205E+00
  0.8205E+00
  0.8205E+00
  0.8205E+00
  0.8205E+00
  0.8205E+00
  0.8205E+00
  0.8205E+00
  0.8205E+00
  0.8205E+00
  0.8205E+00
  0.8205E+00
  0.8205E+00
  0.8205E+00
  0.8205E+00
  0.8202E+00
  0.8184E+00
  0.8121E+00
  0.7973E+00
  0.7735E+00
  0.7457E+00
  0.7171E+00
  0.6902E+00
  0.6666E+00
  0.6402E+00
  0.6132E+00
  0.5802E+00
  0.5337E+00
  0.4669E+00
  0.3885E+00
  0.3186E+00
  0.2658E+00
  0.2304E+00
  0.2107E+00
  0.2027E+00
  0.2005E+00
  0.2001E+00
  0.2000E+00
  0.2000E+00
  0.2000E+00
  0.2000E+00
  0.2000E+00
  0.2000E+00
  0.2000E+00
  0.2000E+00
  0.2000E+00
  0.2000E+00
  0.2000E+00
  0.2000E+00
  0.2000E+00
  0.2000E+00
  0.2000E+00
  0.2000E+00
  0.2000E+00
  0.2000E+00
  0.2000E+00
  0.2000E+00
  0.7862E+00
  0.7862E+00
  0.7862E+00
  0.7862E+00
  0.7862E+00
  0.7862E+00
  0.7862E+00
  0.7862E+00
  0.7862E+00
  0.7862E+00
  0.7862E+00
  0.7862E+00
  0.7862E+00
  0.7862E+00
  0.7862E+00
  0.7862E+00
  0.7862E+00
  0.7862E+00
  0.7858E+00
  0.7837E+00
  0.7770E+00
  0.7624E+00
  0.7410E+00
  0.7162E+00
  0.6894E+00
  0.6627E+00
  0.6340E+00
  0.5962E+00
  0.5468E+00
  0.4841E+00
  0.4141E+00
  0.3459E+00
  0.2890E+00
  0.2467E+00
  0.2199E+00
  0.2064E+00
  0.2014E+00
  0.2002E+00
  0.2000E+00
  0.2000E+00
  0.2000E+00
  0.2000E+00
  0.2000E+00
  0.2000E+00
  0.2000E+00
  0.2000E+00
  0.2000E+00
  0.2000E+00
  0.2000E+00
  0.2000E+00
  0.2000E+00
  0.2000E+00
  0.2000E+00
  0.2000E+00
  0.2000E+00
  0.2000E+00
  0.2000E+00
  0.2000E+00
  0.2000E+00
  0.2000E+00
  0.6910E+00
  0.6910E+00
  0.6910E+00
  0.6910E+00
  0.6910E+00
  0.6910E+00
  0.6910E+00
  0.6910E+00
  0.6910E+00
  0.6910E+00
  0.6910E+00
  0.6910E+00
  0.6910E+00
  0.6910E+00
  0.6910E+00
  0.6910E+00
  0.6910E+00
  0.6909E+00
  0.6905E+00
  0.6882E+00
  0.6814E+00
  0.6678E+00
  0.6479E+00
  0.6226E+00
  0.5911E+00
  0.5534E+00
  0.5062E+00
  0.4534E+00
  0.3970E+00
  0.3421E+00
  0.2932E+00
  0.2536E+00
  0.2257E+00
  0.2097E+00
  0.2027E+00
  0.2005E+00
  0.2001E+00
  0.2000E+00
  0.2000E+00
  0.2000E+00
  0.2000E+00
  0.2000E+00
  0.2000E+00
  0.2000E+00
  0.2000E+00
  0.2000E+00
  0.2000E+00
  0.2000E+00
  0.2000E+00
  0.2000E+00
  0.2000E+00
  0.2000E+00
  0.2000E+00
  0.2000E+00
  0.2000E+00
  0.2000E+00
  0.2000E+00
  0.2000E+00
  0.2000E+00
  0.2000E+00
  0.4619E+00
  0.4619E+00
  0.4619E+00
  0.4619E+00
  0.4619E+00
  0.4619E+00
  0.4619E+00
  0.4619E+00
  0.4619E+00
  0.4619E+00
  0.4619E+00
  0.4619E+00
  0.4619E+00
  0.4619E+00
  0.4619E+00
  0.4619E+00
  0.4619E+00
  0.4618E+00
  0.4615E+00
  0.4600E+00
  0.4558E+00
  0.4474E+00
  0.4342E+00
  0.4156E+00
  0.3920E+00
  0.3637E+00
  0.3324E+00
  0.3003E+00
  0.2695E+00
  0.2424E+00
  0.2219E+00
  0.2091E+00
  0.2030E+00
  0.2007E+00
  0.2001E+00
  0.2000E+00
  0.2000E+00
  0.2000E+00
  0.2000E+00
  0.2000E+00
  0.2000E+00
  0.2000E+00
  0.2000E+00
  0.2000E+00
  0.2000E+00
  0.2000E+00
  0.2000E+00
  0.2000E+00
  0.2000E+00
  0.2000E+00
  0.2000E+00
  0.2000E+00
  0.2000E+00
  0.2000E+00
  0.2000E+00
  0.2000E+00
  0.2000E+00
  0.2000E+00
  0.2000E+00
  0.2000E+00
  0.2777E+00
  0.2777E+00
  0.2777E+00
  0.2777E+00
  0.2777E+00
  0.2777E+00
  0.2777E+00
  0.2777E+00
  0.2777E+00
  0.2777E+00
  0.2777E+00
  0.2777E+00
  0.2777E+00
  0.2777E+00
  0.2777E+00
  0.2777E+00
  0.2777E+00
  0.2777E+00
  0.2776E+00
  0.2772E+00
  0.2760E+00
  0.2734E+00
  0.2690E+00
  0.2621E+00
  0.2529E+00
  0.2418E+00
  0.2299E+00
  0.2188E+00
  0.2100E+00
  0.2044E+00
  0.2015E+00
  0.2004E+00
  0.2001E+00
  0.2000E+00
  0.2000E+00
  0.2000E+00
  0.2000E+00
  0.2000E+00
  0.2000E+00
  0.2000E+00
  0.2000E+00
  0.2000E+00
  0.2000E+00
  0.2000E+00
  0.2000E+00
  0.2000E+00
  0.2000E+00
  0.2000E+00
  0.2000E+00
  0.2000E+00
  0.2000E+00
  0.2000E+00
  0.2000E+00
  0.2000E+00
  0.2000E+00
  0.2000E+00
  0.2000E+00
  0.2000E+00
  0.2000E+00
  0.2000E+00
  0.2085E+00
  0.2085E+00
  0.2085E+00
  0.2085E+00
  0.2085E+00
  0.2085E+00
  0.2085E+00
  0.2085E+00
  0.2085E+00
  0.2085E+00
  0.2085E+00
  0.2085E+00
  0.2085E+00
  0.2085E+00
  0.2085E+00
  0.2085E+00
  0.2085E+00
  0.2085E+00
  0.2084E+00
  0.2084E+00
  0.2081E+00
  0.2076E+00
  0.2068E+00
  0.2055E+00
  0.2041E+00
  0.2026E+00
  0.2014E+00
  0.2006E+00
  0.2002E+00
  0.2001E+00
  0.2000E+00
  0.2000E+00
  0.2000E+00
  0.2000E+00
  0.2000E+00
  0.2000E+00
  0.2000E+00
  0.2000E+00
  0.2000E+00
  0.2000E+00
  0.2000E+00
  0.2000E+00
  0.2000E+00
  0.2000E+00
  0.2000E+00
  0.2000E+00
  0.2000E+00
  0.2000E+00
  0.2000E+00
  0.2000E+00
  0.2000E+00
  0.2000E+00
  0.2000E+00
  0.2000E+00
  0.2000E+00
  0.2000E+00
  0.2000E+00
  0.2000E+00
  0.2000E+00
  0.2000E+00
  0.2001E+00
  0.2001E+00
  0.2001E+00
  0.2001E+00
  0.2001E+00
  0.2001E+00
  0.2001E+00
  0.2001E+00
  0.2001E+00
  0.2001E+00
  0.2001E+00
  0.2001E+00
  0.2001E+00
  0.2001E+00
  0.2001E+00
  0.2001E+00
  0.2001E+00
  0.2001E+00
  0.2001E+00
  0.2000E+00
  0.2000E+00
  0.2000E+00
  0.2000E+00
  0.2000E+00
  0.2000E+00
  0.2000E+00
  0.2000E+00
  0.2000E+00
  0.2000E+00
  0.2000E+00
  0.2000E+00
  0.2000E+00
  0.2000E+00
  0.2000E+00
  0.2000E+00
  0.2000E+00
  0.2000E+00
  0.2000E+00
  0.2000E+00
  0.2000E+00
  0.2000E+00
  0.2000E+00
  0.2000E+00
  0.2000E+00
  0.2000E+00
  0.2000E+00
  0.2000E+00
  0.2000E+00
  0.2000E+00
  0.2000E+00
  0.2000E+00
  0.2000E+00
  0.2000E+00
  0.2000E+00
  0.2000E+00
  0.2000E+00
  0.2000E+00
  0.2000E+00
  0.2000E+00
  0.2000E+00
  0.2000E+00
  0.2000E+00
  0.2000E+00
  0.2000E+00
  0.2000E+00
  0.2000E+00
  0.2000E+00
  0.2000E+00
  0.2000E+00
  0.2000E+00
  0.2000E+00
  0.2000E+00
  0.2000E+00
  0.2000E+00
  0.2000E+00
  0.2000E+00
  0.2000E+00
  0.2000E+00
  0.2000E+00
  0.2000E+00
  0.2000E+00
  0.2000E+00
  0.2000E+00
  0.2000E+00
  0.2000E+00
  0.2000E+00
  0.2000E+00
  0.2000E+00
  0.2000E+00
  0.2000E+00
  0.2000E+00
  0.2000E+00
  0.2000E+00
  0.2000E+00
  0.2000E+00
  0.2000E+00
  0.2000E+00
  0.2000E+00
  0.2000E+00
  0.2000E+00
  0.2000E+00
  0.2000E+00
  0.2000E+00
  0.2000E+00
  0.2000E+00
  0.2000E+00
  0.2000E+00
  0.2000E+00
  0.2000E+00
  0.2000E+00
  0.2000E+00
  0.2000E+00
  0.2000E+00
  0.2000E+00
  0.2000E+00
  0.2000E+00
  0.2000E+00
  0.2000E+00
  0.2000E+00
  0.2000E+00
  0.2000E+00
  0.2000E+00
  0.2000E+00
  0.2000E+00
  0.2000E+00
  0.2000E+00
  0.2000E+00
  0.2000E+00
  0.2000E+00
  0.2000E+00
  0.2000E+00
  0.2000E+00
  0.2000E+00
  0.2000E+00
  0.2000E+00
  0.2000E+00
  0.2000E+00
  0.2000E+00
  0.2000E+00
  0.2000E+00
  0.2000E+00
  0.2000E+00
  0.2000E+00
  0.2000E+00
  0.2000E+00
  0.2000E+00
  0.2000E+00
  0.2000E+00
  0.2000E+00
  0.2000E+00
  0.2000E+00
  0.2000E+00
  0.2000E+00
  0.2000E+00
  0.2000E+00
  0.2000E+00
  0.2000E+00
  0.2000E+00
  0.2000E+00
  0.2000E+00
  0.2000E+00
  0.2000E+00
  0.2000E+00
  0.2000E+00
  0.2000E+00
  0.2000E+00
  0.2000E+00
  0.2000E+00
  0.2000E+00
  0.2000E+00
  0.2000E+00
  0.2000E+00
  0.2000E+00
  0.2000E+00
  0.2000E+00
  0.2000E+00
  0.2000E+00
  0.2000E+00
  0.2000E+00
  0.2000E+00
  0.2000E+00
  0.2000E+00
  0.2000E+00
  0.2000E+00
  0.2000E+00
  0.2000E+00
  0.2000E+00
  0.2000E+00
  0.2000E+00
  0.2000E+00
  0.2000E+00
  0.2000E+00
  0.2000E+00
  0.2000E+00
  0.2000E+00
  0.2000E+00
  0.2000E+00
  0.2000E+00
  0.2000E+00
  0.2000E+00
  0.2000E+00
  0.2000E+00
  0.2000E+00
  0.2000E+00
  0.2000E+00
  0.2000E+00
  0.2000E+00
  0.2000E+00
  0.2000E+00
  0.2000E+00
  0.2000E+00
  0.2000E+00
  0.2000E+00
  0.2000E+00
  0.2000E+00
  0.2000E+00
  0.2000E+00
  0.2000E+00
  0.2000E+00
  0.2000E+00
  0.2000E+00
  0.2000E+00
  0.2000E+00
  0.2000E+00
  0.2000E+00
  0.2000E+00
  0.2000E+00
  0.2000E+00
  0.2000E+00
  0.2000E+00
  0.2000E+00
  0.2000E+00
  0.2000E+00
  0.2000E+00
  0.2000E+00
  0.2000E+00
  0.2000E+00
  0.2000E+00
  0.2000E+00
  0.2000E+00
  0.2000E+00
  0.2000E+00
  0.2000E+00
  0.2000E+00
  0.2000E+00
  0.2000E+00
  0.2000E+00
  0.2000E+00
  0.2000E+00
  0.2000E+00
  0.2000E+00
  0.2000E+00
  0.2000E+00
  0.2000E+00
  0.2000E+00
  0.2000E+00
  0.2000E+00
  0.2000E+00
  0.2000E+00
  0.2000E+00
  0.2000E+00
  0.2000E+00
  0.2000E+00
  0.2000E+00
  0.2000E+00
  0.2000E+00
  0.2000E+00
  0.2000E+00
  0.2000E+00
  0.2000E+00
  0.2000E+00
  0.2000E+00
  0.2000E+00
  0.2000E+00
  0.2000E+00
  0.2000E+00
  0.2000E+00
  0.2000E+00
  0.2000E+00
  0.2000E+00
  0.2000E+00
  0.2000E+00
  0.2000E+00
  0.2000E+00
  0.2000E+00
  0.2000E+00
  0.2000E+00
  0.2000E+00
  0.2000E+00
  0.2000E+00
  0.2000E+00
  0.2000E+00
  0.2000E+00
  0.2000E+00
  0.2000E+00
  0.2000E+00
  0.2000E+00
  0.2000E+00
  0.2000E+00
  0.2000E+00
  0.2000E+00
  0.2000E+00
  0.2000E+00
  0.2000E+00