# vtk DataFile Version 3.0
vtk output
ASCII
DATASET RECTILINEAR_GRID
DIMENSIONS          61          61 1
X_COORDINATES    61 double
  0.0000E+00
  0.1667E+00
  0.3333E+00
  0.5000E+00
  0.6667E+00
  0.8333E+00
  0.1000E+01
  0.1167E+01
  0.1333E+01
  0.1500E+01
  0.1667E+01
  0.1833E+01
  0.2000E+01
  0.2167E+01
  0.2333E+01
  0.2500E+01
  0.2667E+01
  0.2833E+01
  0.3000E+01
  0.3167E+01
  0.3333E+01
  0.3500E+01
  0.3667E+01
  0.3833E+01
  0.4000E+01
  0.4167E+01
  0.4333E+01
  0.4500E+01
  0.4667E+01
  0.4833E+01
  0.5000E+01
  0.5167E+01
  0.5333E+01
  0.5500E+01
  0.5667E+01
  0.5833E+01
  0.6000E+01
  0.6167E+01
  0.6333E+01
  0.6500E+01
  0.6667E+01
  0.6833E+01
  0.7000E+01
  0.7167E+01
  0.7333E+01
  0.7500E+01
  0.7667E+01
  0.7833E+01
  0.8000E+01
  0.8167E+01
  0.8333E+01
  0.8500E+01
  0.8667E+01
  0.8833E+01
  0.9000E+01
  0.9167E+01
  0.9333E+01
  0.9500E+01
  0.9667E+01
  0.9833E+01
  0.1000E+02
Y_COORDINATES    61 double
  0.0000E+00
  0.1667E+00
  0.3333E+00
  0.5000E+00
  0.6667E+00
  0.8333E+00
  0.1000E+01
  0.1167E+01
  0.1333E+01
  0.1500E+01
  0.1667E+01
  0.1833E+01
  0.2000E+01
  0.2167E+01
  0.2333E+01
  0.2500E+01
  0.2667E+01
  0.2833E+01
  0.3000E+01
  0.3167E+01
  0.3333E+01
  0.3500E+01
  0.3667E+01
  0.3833E+01
  0.4000E+01
  0.4167E+01
  0.4333E+01
  0.4500E+01
  0.4667E+01
  0.4833E+01
  0.5000E+01
  0.5167E+01
  0.5333E+01
  0.5500E+01
  0.5667E+01
  0.5833E+01
  0.6000E+01
  0.6167E+01
  0.6333E+01
  0.6500E+01
  0.6667E+01
  0.6833E+01
  0.7000E+01
  0.7167E+01
  0.7333E+01
  0.7500E+01
  0.7667E+01
  0.7833E+01
  0.8000E+01
  0.8167E+01
  0.8333E+01
  0.8500E+01
  0.8667E+01
  0.8833E+01
  0.9000E+01
  0.9167E+01
  0.9333E+01
  0.9500E+01
  0.9667E+01
  0.9833E+01
  0.1000E+02
Z_COORDINATES 1 double
0
CELL_DATA                 3600
FIELD FieldData 4
density 1                 3600 double
  0.8531E+01
  0.8531E+01
  0.8531E+01
  0.8531E+01
  0.8531E+01
  0.8531E+01
  0.8531E+01
  0.8531E+01
  0.8531E+01
  0.8531E+01
  0.8531E+01
  0.8531E+01
  0.8531E+01
  0.8531E+01
  0.8529E+01
  0.8523E+01
  0.8498E+01
  0.8415E+01
  0.8223E+01
  0.7891E+01
  0.7453E+01
  0.6967E+01
  0.6478E+01
  0.6004E+01
  0.5557E+01
  0.5142E+01
  0.4757E+01
  0.4399E+01
  0.4066E+01
  0.3757E+01
  0.3467E+01
  0.3194E+01
  0.2936E+01
  0.2696E+01
  0.2476E+01
  0.2279E+01
  0.2106E+01
  0.1960E+01
  0.1842E+01
  0.1739E+01
  0.1665E+01
  0.1627E+01
  0.1599E+01
  0.1526E+01
  0.1365E+01
  0.1140E+01
  0.9228E+00
  0.7739E+00
  0.7300E+00
  0.7316E+00
  0.7271E+00
  0.6103E+00
  0.3713E+00
  0.2393E+00
  0.2019E+00
  0.2000E+00
  0.2000E+00
  0.2000E+00
  0.2000E+00
  0.2000E+00
  0.8266E+01
  0.8266E+01
  0.8266E+01
  0.8266E+01
  0.8266E+01
  0.8266E+01
  0.8266E+01
  0.8266E+01
  0.8266E+01
  0.8266E+01
  0.8266E+01
  0.8266E+01
  0.8266E+01
  0.8266E+01
  0.8265E+01
  0.8259E+01
  0.8235E+01
  0.8156E+01
  0.7972E+01
  0.7652E+01
  0.7228E+01
  0.6758E+01
  0.6284E+01
  0.5826E+01
  0.5395E+01
  0.4994E+01
  0.4623E+01
  0.4279E+01
  0.3959E+01
  0.3663E+01
  0.3385E+01
  0.3123E+01
  0.2875E+01
  0.2644E+01
  0.2433E+01
  0.2244E+01
  0.2077E+01
  0.1936E+01
  0.1822E+01
  0.1724E+01
  0.1652E+01
  0.1615E+01
  0.1587E+01
  0.1513E+01
  0.1350E+01
  0.1124E+01
  0.9087E+00
  0.7620E+00
  0.7205E+00
  0.7233E+00
  0.7192E+00
  0.6018E+00
  0.3665E+00
  0.2379E+00
  0.2018E+00
  0.2000E+00
  0.2000E+00
  0.2000E+00
  0.2000E+00
  0.2000E+00
  0.7820E+01
  0.7820E+01
  0.7820E+01
  0.7820E+01
  0.7820E+01
  0.7820E+01
  0.7820E+01
  0.7820E+01
  0.7820E+01
  0.7820E+01
  0.7820E+01
  0.7820E+01
  0.7820E+01
  0.7820E+01
  0.7819E+01
  0.7814E+01
  0.7791E+01
  0.7719E+01
  0.7548E+01
  0.7249E+01
  0.6848E+01
  0.6403E+01
  0.5954E+01
  0.5520E+01
  0.5112E+01
  0.4733E+01
  0.4384E+01
  0.4060E+01
  0.3761E+01
  0.3483E+01
  0.3224E+01
  0.2979E+01
  0.2749E+01
  0.2534E+01
  0.2337E+01
  0.2161E+01
  0.2007E+01
  0.1877E+01
  0.1772E+01
  0.1681E+01
  0.1613E+01
  0.1579E+01
  0.1551E+01
  0.1475E+01
  0.1313E+01
  0.1092E+01
  0.8828E+00
  0.7422E+00
  0.7054E+00
  0.7096E+00
  0.7060E+00
  0.5870E+00
  0.3579E+00
  0.2351E+00
  0.2015E+00
  0.2000E+00
  0.2000E+00
  0.2000E+00
  0.2000E+00
  0.2000E+00
  0.7303E+01
  0.7303E+01
  0.7303E+01
  0.7303E+01
  0.7303E+01
  0.7303E+01
  0.7303E+01
  0.7303E+01
  0.7303E+01
  0.7303E+01
  0.7303E+01
  0.7303E+01
  0.7303E+01
  0.7303E+01
  0.7302E+01
  0.7298E+01
  0.7278E+01
  0.7214E+01
  0.7058E+01
  0.6781E+01
  0.6407E+01
  0.5989E+01
  0.5567E+01
  0.5158E+01
  0.4775E+01
  0.4419E+01
  0.4092E+01
  0.3789E+01
  0.3510E+01
  0.3251E+01
  0.3011E+01
  0.2784E+01
  0.2571E+01
  0.2373E+01
  0.2193E+01
  0.2032E+01
  0.1891E+01
  0.1774E+01
  0.1680E+01
  0.1597E+01
  0.1536E+01
  0.1506E+01
  0.1479E+01
  0.1406E+01
  0.1253E+01
  0.1045E+01
  0.8500E+00
  0.7193E+00
  0.6887E+00
  0.6944E+00
  0.6901E+00
  0.5654E+00
  0.3449E+00
  0.2308E+00
  0.2012E+00
  0.2000E+00
  0.2000E+00
  0.2000E+00
  0.2000E+00
  0.2000E+00
  0.6776E+01
  0.6776E+01
  0.6776E+01
  0.6776E+01
  0.6776E+01
  0.6776E+01
  0.6776E+01
  0.6776E+01
  0.6776E+01
  0.6776E+01
  0.6776E+01
  0.6776E+01
  0.6776E+01
  0.6776E+01
  0.6775E+01
  0.6771E+01
  0.6754E+01
  0.6698E+01
  0.6558E+01
  0.6305E+01
  0.5958E+01
  0.5567E+01
  0.5171E+01
  0.4787E+01
  0.4427E+01
  0.4094E+01
  0.3786E+01
  0.3503E+01
  0.3242E+01
  0.3001E+01
  0.2777E+01
  0.2567E+01
  0.2370E+01
  0.2187E+01
  0.2021E+01
  0.1874E+01
  0.1745E+01
  0.1639E+01
  0.1554E+01
  0.1479E+01
  0.1423E+01
  0.1396E+01
  0.1374E+01
  0.1310E+01
  0.1176E+01
  0.9917E+00
  0.8139E+00
  0.6953E+00
  0.6716E+00
  0.6788E+00
  0.6723E+00
  0.5375E+00
  0.3285E+00
  0.2254E+00
  0.2008E+00
  0.2000E+00
  0.2000E+00
  0.2000E+00
  0.2000E+00
  0.2000E+00
  0.6265E+01
  0.6265E+01
  0.6265E+01
  0.6265E+01
  0.6265E+01
  0.6265E+01
  0.6265E+01
  0.6265E+01
  0.6265E+01
  0.6265E+01
  0.6265E+01
  0.6265E+01
  0.6265E+01
  0.6265E+01
  0.6264E+01
  0.6261E+01
  0.6246E+01
  0.6197E+01
  0.6073E+01
  0.5843E+01
  0.5523E+01
  0.5159E+01
  0.4787E+01
  0.4427E+01
  0.4089E+01
  0.3776E+01
  0.3488E+01
  0.3223E+01
  0.2979E+01
  0.2754E+01
  0.2545E+01
  0.2349E+01
  0.2166E+01
  0.1997E+01
  0.1844E+01
  0.1708E+01
  0.1590E+01
  0.1492E+01
  0.1414E+01
  0.1344E+01
  0.1291E+01
  0.1268E+01
  0.1253E+01
  0.1204E+01
  0.1095E+01
  0.9365E+00
  0.7765E+00
  0.6707E+00
  0.6551E+00
  0.6638E+00
  0.6531E+00
  0.5034E+00
  0.3093E+00
  0.2193E+00
  0.2005E+00
  0.2000E+00
  0.2000E+00
  0.2000E+00
  0.2000E+00
  0.2000E+00
  0.5783E+01
  0.5783E+01
  0.5783E+01
  0.5783E+01
  0.5783E+01
  0.5783E+01
  0.5783E+01
  0.5783E+01
  0.5783E+01
  0.5783E+01
  0.5783E+01
  0.5783E+01
  0.5783E+01
  0.5783E+01
  0.5782E+01
  0.5780E+01
  0.5767E+01
  0.5725E+01
  0.5616E+01
  0.5409E+01
  0.5114E+01
  0.4775E+01
  0.4427E+01
  0.4089E+01
  0.3771E+01
  0.3478E+01
  0.3207E+01
  0.2958E+01
  0.2730E+01
  0.2519E+01
  0.2324E+01
  0.2142E+01
  0.1971E+01
  0.1814E+01
  0.1672E+01
  0.1547E+01
  0.1438E+01
  0.1347E+01
  0.1273E+01
  0.1207E+01
  0.1155E+01
  0.1140E+01
  0.1133E+01
  0.1106E+01
  0.1021E+01
  0.8836E+00
  0.7372E+00
  0.6472E+00
  0.6392E+00
  0.6524E+00
  0.6306E+00
  0.4604E+00
  0.2884E+00
  0.2133E+00
  0.2003E+00
  0.2000E+00
  0.2000E+00
  0.2000E+00
  0.2000E+00
  0.2000E+00
  0.5335E+01
  0.5335E+01
  0.5335E+01
  0.5335E+01
  0.5335E+01
  0.5335E+01
  0.5335E+01
  0.5335E+01
  0.5335E+01
  0.5335E+01
  0.5335E+01
  0.5335E+01
  0.5335E+01
  0.5335E+01
  0.5334E+01
  0.5332E+01
  0.5322E+01
  0.5286E+01
  0.5191E+01
  0.5006E+01
  0.4735E+01
  0.4419E+01
  0.4093E+01
  0.3776E+01
  0.3478E+01
  0.3202E+01
  0.2948E+01
  0.2714E+01
  0.2500E+01
  0.2303E+01
  0.2120E+01
  0.1950E+01
  0.1791E+01
  0.1645E+01
  0.1513E+01
  0.1396E+01
  0.1295E+01
  0.1211E+01
  0.1141E+01
  0.1077E+01
  0.1029E+01
  0.1022E+01
  0.1027E+01
  0.1022E+01
  0.9650E+00
  0.8327E+00
  0.6949E+00
  0.6255E+00
  0.6266E+00
  0.6410E+00
  0.5982E+00
  0.4143E+00
  0.2671E+00
  0.2081E+00
  0.2001E+00
  0.2000E+00
  0.2000E+00
  0.2000E+00
  0.2000E+00
  0.2000E+00
  0.4919E+01
  0.4919E+01
  0.4919E+01
  0.4919E+01
  0.4919E+01
  0.4919E+01
  0.4919E+01
  0.4919E+01
  0.4919E+01
  0.4919E+01
  0.4919E+01
  0.4919E+01
  0.4919E+01
  0.4919E+01
  0.4919E+01
  0.4917E+01
  0.4909E+01
  0.4879E+01
  0.4797E+01
  0.4632E+01
  0.4385E+01
  0.4092E+01
  0.3786E+01
  0.3488E+01
  0.3207E+01
  0.2948E+01
  0.2709E+01
  0.2490E+01
  0.2289E+01
  0.2105E+01
  0.1934E+01
  0.1774E+01
  0.1626E+01
  0.1490E+01
  0.1367E+01
  0.1259E+01
  0.1165E+01
  0.1086E+01
  0.1020E+01
  0.9549E+00
  0.9218E+00
  0.9234E+00
  0.9486E+00
  0.9564E+00
  0.9168E+00
  0.7834E+00
  0.6512E+00
  0.6078E+00
  0.6166E+00
  0.6262E+00
  0.5548E+00
  0.3680E+00
  0.2469E+00
  0.2042E+00
  0.2000E+00
  0.2000E+00
  0.2000E+00
  0.2000E+00
  0.2000E+00
  0.2000E+00
  0.4535E+01
  0.4535E+01
  0.4535E+01
  0.4535E+01
  0.4535E+01
  0.4535E+01
  0.4535E+01
  0.4535E+01
  0.4535E+01
  0.4535E+01
  0.4535E+01
  0.4535E+01
  0.4535E+01
  0.4535E+01
  0.4535E+01
  0.4533E+01
  0.4527E+01
  0.4502E+01
  0.4432E+01
  0.4286E+01
  0.4061E+01
  0.3789E+01
  0.3503E+01
  0.3223E+01
  0.2958E+01
  0.2714E+01
  0.2490E+01
  0.2284E+01
  0.2096E+01
  0.1924E+01
  0.1764E+01
  0.1615E+01
  0.1476E+01
  0.1350E+01
  0.1236E+01
  0.1135E+01
  0.1048E+01
  0.9743E+00
  0.9101E+00
  0.8493E+00
  0.8364E+00
  0.8509E+00
  0.9053E+00
  0.9177E+00
  0.8657E+00
  0.7247E+00
  0.6106E+00
  0.5945E+00
  0.6090E+00
  0.6066E+00
  0.4946E+00
  0.3236E+00
  0.2292E+00
  0.2019E+00
  0.2000E+00
  0.2000E+00
  0.2000E+00
  0.2000E+00
  0.2000E+00
  0.2000E+00
  0.4179E+01
  0.4179E+01
  0.4179E+01
  0.4179E+01
  0.4179E+01
  0.4179E+01
  0.4179E+01
  0.4179E+01
  0.4179E+01
  0.4179E+01
  0.4179E+01
  0.4179E+01
  0.4179E+01
  0.4179E+01
  0.4179E+01
  0.4178E+01
  0.4173E+01
  0.4152E+01
  0.4093E+01
  0.3965E+01
  0.3761E+01
  0.3509E+01
  0.3242E+01
  0.2979E+01
  0.2730E+01
  0.2500E+01
  0.2289E+01
  0.2096E+01
  0.1920E+01
  0.1758E+01
  0.1609E+01
  0.1469E+01
  0.1340E+01
  0.1222E+01
  0.1117E+01
  0.1023E+01
  0.9420E+00
  0.8742E+00
  0.8096E+00
  0.7692E+00
  0.7694E+00
  0.8179E+00
  0.8891E+00
  0.8887E+00
  0.8001E+00
  0.6561E+00
  0.5809E+00
  0.5844E+00
  0.6037E+00
  0.5750E+00
  0.4242E+00
  0.2844E+00
  0.2157E+00
  0.2007E+00
  0.2000E+00
  0.2000E+00
  0.2000E+00
  0.2000E+00
  0.2000E+00
  0.2000E+00
  0.3849E+01
  0.3849E+01
  0.3849E+01
  0.3849E+01
  0.3849E+01
  0.3849E+01
  0.3849E+01
  0.3849E+01
  0.3849E+01
  0.3849E+01
  0.3849E+01
  0.3849E+01
  0.3849E+01
  0.3849E+01
  0.3849E+01
  0.3848E+01
  0.3845E+01
  0.3828E+01
  0.3778E+01
  0.3667E+01
  0.3484E+01
  0.3251E+01
  0.3001E+01
  0.2754E+01
  0.2519E+01
  0.2303E+01
  0.2105E+01
  0.1923E+01
  0.1758E+01
  0.1607E+01
  0.1467E+01
  0.1337E+01
  0.1216E+01
  0.1107E+01
  0.1009E+01
  0.9216E+00
  0.8468E+00
  0.7817E+00
  0.7245E+00
  0.7136E+00
  0.7420E+00
  0.8368E+00
  0.8751E+00
  0.8410E+00
  0.7103E+00
  0.5883E+00
  0.5648E+00
  0.5811E+00
  0.5883E+00
  0.5182E+00
  0.3603E+00
  0.2520E+00
  0.2070E+00
  0.2002E+00
  0.2000E+00
  0.2000E+00
  0.2000E+00
  0.2000E+00
  0.2000E+00
  0.2000E+00
  0.3542E+01
  0.3542E+01
  0.3542E+01
  0.3542E+01
  0.3542E+01
  0.3542E+01
  0.3542E+01
  0.3542E+01
  0.3542E+01
  0.3542E+01
  0.3542E+01
  0.3542E+01
  0.3542E+01
  0.3542E+01
  0.3542E+01
  0.3542E+01
  0.3538E+01
  0.3525E+01
  0.3484E+01
  0.3388E+01
  0.3224E+01
  0.3010E+01
  0.2777E+01
  0.2545E+01
  0.2324E+01
  0.2120E+01
  0.1934E+01
  0.1763E+01
  0.1609E+01
  0.1467E+01
  0.1336E+01
  0.1214E+01
  0.1102E+01
  0.1000E+01
  0.9090E+00
  0.8284E+00
  0.7590E+00
  0.6954E+00
  0.6702E+00
  0.6875E+00
  0.7712E+00
  0.8479E+00
  0.8446E+00
  0.7510E+00
  0.6114E+00
  0.5488E+00
  0.5558E+00
  0.5781E+00
  0.5597E+00
  0.4389E+00
  0.3051E+00
  0.2276E+00
  0.2025E+00
  0.2000E+00
  0.2000E+00
  0.2000E+00
  0.2000E+00
  0.2000E+00
  0.2000E+00
  0.2000E+00
  0.3254E+01
  0.3254E+01
  0.3254E+01
  0.3254E+01
  0.3254E+01
  0.3254E+01
  0.3254E+01
  0.3254E+01
  0.3254E+01
  0.3254E+01
  0.3254E+01
  0.3254E+01
  0.3254E+01
  0.3254E+01
  0.3254E+01
  0.3253E+01
  0.3251E+01
  0.3241E+01
  0.3207E+01
  0.3125E+01
  0.2979E+01
  0.2784E+01
  0.2567E+01
  0.2349E+01
  0.2141E+01
  0.1949E+01
  0.1774E+01
  0.1614E+01
  0.1469E+01
  0.1337E+01
  0.1214E+01
  0.1100E+01
  0.9963E+00
  0.9019E+00
  0.8172E+00
  0.7428E+00
  0.6728E+00
  0.6384E+00
  0.6515E+00
  0.7174E+00
  0.8139E+00
  0.8304E+00
  0.7707E+00
  0.6304E+00
  0.5399E+00
  0.5351E+00
  0.5573E+00
  0.5622E+00
  0.4987E+00
  0.3631E+00
  0.2621E+00
  0.2120E+00
  0.2007E+00
  0.2000E+00
  0.2000E+00
  0.2000E+00
  0.2000E+00
  0.2000E+00
  0.2000E+00
  0.2000E+00
  0.2984E+01
  0.2984E+01
  0.2984E+01
  0.2984E+01
  0.2984E+01
  0.2984E+01
  0.2984E+01
  0.2984E+01
  0.2984E+01
  0.2984E+01
  0.2984E+01
  0.2984E+01
  0.2984E+01
  0.2984E+01
  0.2984E+01
  0.2983E+01
  0.2982E+01
  0.2974E+01
  0.2946E+01
  0.2877E+01
  0.2749E+01
  0.2571E+01
  0.2369E+01
  0.2166E+01
  0.1971E+01
  0.1791E+01
  0.1626E+01
  0.1476E+01
  0.1340E+01
  0.1216E+01
  0.1102E+01
  0.9963E+00
  0.8995E+00
  0.8117E+00
  0.7331E+00
  0.6568E+00
  0.6184E+00
  0.6287E+00
  0.6836E+00
  0.7824E+00
  0.8169E+00
  0.7765E+00
  0.6466E+00
  0.5357E+00
  0.5186E+00
  0.5356E+00
  0.5553E+00
  0.5254E+00
  0.4126E+00
  0.3015E+00
  0.2312E+00
  0.2041E+00
  0.2002E+00
  0.2000E+00
  0.2000E+00
  0.2000E+00
  0.2000E+00
  0.2000E+00
  0.2000E+00
  0.2000E+00
  0.2733E+01
  0.2733E+01
  0.2733E+01
  0.2733E+01
  0.2733E+01
  0.2733E+01
  0.2733E+01
  0.2733E+01
  0.2733E+01
  0.2733E+01
  0.2733E+01
  0.2733E+01
  0.2733E+01
  0.2733E+01
  0.2733E+01
  0.2733E+01
  0.2732E+01
  0.2726E+01
  0.2704E+01
  0.2646E+01
  0.2534E+01
  0.2373E+01
  0.2187E+01
  0.1997E+01
  0.1814E+01
  0.1645E+01
  0.1490E+01
  0.1349E+01
  0.1222E+01
  0.1106E+01
  0.1000E+01
  0.9018E+00
  0.8118E+00
  0.7301E+00
  0.6469E+00
  0.6079E+00
  0.6150E+00
  0.6591E+00
  0.7558E+00
  0.8058E+00
  0.7801E+00
  0.6629E+00
  0.5439E+00
  0.5118E+00
  0.5228E+00
  0.5433E+00
  0.5319E+00
  0.4486E+00
  0.3372E+00
  0.2560E+00
  0.2126E+00
  0.2011E+00
  0.2000E+00
  0.2000E+00
  0.2000E+00
  0.2000E+00
  0.2000E+00
  0.2000E+00
  0.2000E+00
  0.2000E+00
  0.2505E+01
  0.2505E+01
  0.2505E+01
  0.2505E+01
  0.2505E+01
  0.2505E+01
  0.2505E+01
  0.2505E+01
  0.2505E+01
  0.2505E+01
  0.2505E+01
  0.2505E+01
  0.2505E+01
  0.2505E+01
  0.2505E+01
  0.2505E+01
  0.2504E+01
  0.2499E+01
  0.2482E+01
  0.2434E+01
  0.2337E+01
  0.2192E+01
  0.2021E+01
  0.1844E+01
  0.1672E+01
  0.1513E+01
  0.1367E+01
  0.1235E+01
  0.1117E+01
  0.1008E+01
  0.9089E+00
  0.8172E+00
  0.7332E+00
  0.6478E+00
  0.6055E+00
  0.6096E+00
  0.6459E+00
  0.7339E+00
  0.7988E+00
  0.7882E+00
  0.6869E+00
  0.5590E+00
  0.5129E+00
  0.5173E+00
  0.5362E+00
  0.5325E+00
  0.4689E+00
  0.3642E+00
  0.2796E+00
  0.2256E+00
  0.2039E+00
  0.2002E+00
  0.2000E+00
  0.2000E+00
  0.2000E+00
  0.2000E+00
  0.2000E+00
  0.2000E+00
  0.2000E+00
  0.2000E+00
  0.2301E+01
  0.2301E+01
  0.2301E+01
  0.2301E+01
  0.2301E+01
  0.2301E+01
  0.2301E+01
  0.2301E+01
  0.2301E+01
  0.2301E+01
  0.2301E+01
  0.2301E+01
  0.2301E+01
  0.2301E+01
  0.2301E+01
  0.2301E+01
  0.2300E+01
  0.2297E+01
  0.2284E+01
  0.2244E+01
  0.2161E+01
  0.2031E+01
  0.1873E+01
  0.1708E+01
  0.1546E+01
  0.1396E+01
  0.1259E+01
  0.1135E+01
  0.1023E+01
  0.9214E+00
  0.8284E+00
  0.7426E+00
  0.6550E+00
  0.6101E+00
  0.6110E+00
  0.6353E+00
  0.7161E+00
  0.7989E+00
  0.7977E+00
  0.7155E+00
  0.5860E+00
  0.5218E+00
  0.5194E+00
  0.5323E+00
  0.5311E+00
  0.4780E+00
  0.3817E+00
  0.2982E+00
  0.2395E+00
  0.2091E+00
  0.2009E+00
  0.2000E+00
  0.2000E+00
  0.2000E+00
  0.2000E+00
  0.2000E+00
  0.2000E+00
  0.2000E+00
  0.2000E+00
  0.2000E+00
  0.2123E+01
  0.2123E+01
  0.2123E+01
  0.2123E+01
  0.2123E+01
  0.2123E+01
  0.2123E+01
  0.2123E+01
  0.2123E+01
  0.2123E+01
  0.2123E+01
  0.2123E+01
  0.2123E+01
  0.2123E+01
  0.2123E+01
  0.2123E+01
  0.2122E+01
  0.2120E+01
  0.2109E+01
  0.2077E+01
  0.2006E+01
  0.1891E+01
  0.1745E+01
  0.1590E+01
  0.1437E+01
  0.1295E+01
  0.1165E+01
  0.1047E+01
  0.9418E+00
  0.8468E+00
  0.7587E+00
  0.6716E+00
  0.6198E+00
  0.6172E+00
  0.6455E+00
  0.7141E+00
  0.7910E+00
  0.8000E+00
  0.7425E+00
  0.6161E+00
  0.5386E+00
  0.5278E+00
  0.5348E+00
  0.5313E+00
  0.4820E+00
  0.3908E+00
  0.3104E+00
  0.2512E+00
  0.2155E+00
  0.2023E+00
  0.2001E+00
  0.2000E+00
  0.2000E+00
  0.2000E+00
  0.2000E+00
  0.2000E+00
  0.2000E+00
  0.2000E+00
  0.2000E+00
  0.2000E+00
  0.1972E+01
  0.1972E+01
  0.1972E+01
  0.1972E+01
  0.1972E+01
  0.1972E+01
  0.1972E+01
  0.1972E+01
  0.1972E+01
  0.1972E+01
  0.1972E+01
  0.1972E+01
  0.1972E+01
  0.1972E+01
  0.1972E+01
  0.1972E+01
  0.1972E+01
  0.1970E+01
  0.1962E+01
  0.1937E+01
  0.1877E+01
  0.1773E+01
  0.1639E+01
  0.1492E+01
  0.1347E+01
  0.1211E+01
  0.1086E+01
  0.9743E+00
  0.8741E+00
  0.7816E+00
  0.6932E+00
  0.6413E+00
  0.6285E+00
  0.6575E+00
  0.7343E+00
  0.7937E+00
  0.7966E+00
  0.7461E+00
  0.6313E+00
  0.5520E+00
  0.5386E+00
  0.5421E+00
  0.5351E+00
  0.4848E+00
  0.3954E+00
  0.3170E+00
  0.2593E+00
  0.2215E+00
  0.2044E+00
  0.2004E+00
  0.2000E+00
  0.2000E+00
  0.2000E+00
  0.2000E+00
  0.2000E+00
  0.2000E+00
  0.2000E+00
  0.2000E+00
  0.2000E+00
  0.2000E+00
  0.1850E+01
  0.1850E+01
  0.1850E+01
  0.1850E+01
  0.1850E+01
  0.1850E+01
  0.1850E+01
  0.1850E+01
  0.1850E+01
  0.1850E+01
  0.1850E+01
  0.1850E+01
  0.1850E+01
  0.1850E+01
  0.1850E+01
  0.1850E+01
  0.1850E+01
  0.1849E+01
  0.1843E+01
  0.1823E+01
  0.1772E+01
  0.1679E+01
  0.1554E+01
  0.1413E+01
  0.1273E+01
  0.1141E+01
  0.1020E+01
  0.9100E+00
  0.8097E+00
  0.7237E+00
  0.6731E+00
  0.6508E+00
  0.6817E+00
  0.7569E+00
  0.8008E+00
  0.7936E+00
  0.7340E+00
  0.6266E+00
  0.5545E+00
  0.5436E+00
  0.5454E+00
  0.5385E+00
  0.4882E+00
  0.3993E+00
  0.3210E+00
  0.2639E+00
  0.2260E+00
  0.2067E+00
  0.2009E+00
  0.2001E+00
  0.2000E+00
  0.2000E+00
  0.2000E+00
  0.2000E+00
  0.2000E+00
  0.2000E+00
  0.2000E+00
  0.2000E+00
  0.2000E+00
  0.2000E+00
  0.1746E+01
  0.1746E+01
  0.1746E+01
  0.1746E+01
  0.1746E+01
  0.1746E+01
  0.1746E+01
  0.1746E+01
  0.1746E+01
  0.1746E+01
  0.1746E+01
  0.1746E+01
  0.1746E+01
  0.1746E+01
  0.1746E+01
  0.1746E+01
  0.1746E+01
  0.1745E+01
  0.1741E+01
  0.1724E+01
  0.1680E+01
  0.1597E+01
  0.1479E+01
  0.1344E+01
  0.1207E+01
  0.1076E+01
  0.9547E+00
  0.8497E+00
  0.7689E+00
  0.7119E+00
  0.6856E+00
  0.7169E+00
  0.7852E+00
  0.8072E+00
  0.7892E+00
  0.7121E+00
  0.6090E+00
  0.5481E+00
  0.5423E+00
  0.5448E+00
  0.5379E+00
  0.4872E+00
  0.4001E+00
  0.3233E+00
  0.2667E+00
  0.2288E+00
  0.2085E+00
  0.2014E+00
  0.2001E+00
  0.2000E+00
  0.2000E+00
  0.2000E+00
  0.2000E+00
  0.2000E+00
  0.2000E+00
  0.2000E+00
  0.2000E+00
  0.2000E+00
  0.2000E+00
  0.2000E+00
  0.1671E+01
  0.1671E+01
  0.1671E+01
  0.1671E+01
  0.1671E+01
  0.1671E+01
  0.1671E+01
  0.1671E+01
  0.1671E+01
  0.1671E+01
  0.1671E+01
  0.1671E+01
  0.1671E+01
  0.1671E+01
  0.1671E+01
  0.1671E+01
  0.1671E+01
  0.1670E+01
  0.1666E+01
  0.1652E+01
  0.1613E+01
  0.1536E+01
  0.1423E+01
  0.1290E+01
  0.1155E+01
  0.1029E+01
  0.9223E+00
  0.8361E+00
  0.7696E+00
  0.7409E+00
  0.7678E+00
  0.8137E+00
  0.8140E+00
  0.7837E+00
  0.6856E+00
  0.5842E+00
  0.5377E+00
  0.5399E+00
  0.5449E+00
  0.5367E+00
  0.4841E+00
  0.3987E+00
  0.3230E+00
  0.2679E+00
  0.2304E+00
  0.2096E+00
  0.2019E+00
  0.2002E+00
  0.2000E+00
  0.2000E+00
  0.2000E+00
  0.2000E+00
  0.2000E+00
  0.2000E+00
  0.2000E+00
  0.2000E+00
  0.2000E+00
  0.2000E+00
  0.2000E+00
  0.2000E+00
  0.1632E+01
  0.1632E+01
  0.1632E+01
  0.1632E+01
  0.1632E+01
  0.1632E+01
  0.1632E+01
  0.1632E+01
  0.1632E+01
  0.1632E+01
  0.1632E+01
  0.1632E+01
  0.1632E+01
  0.1632E+01
  0.1632E+01
  0.1632E+01
  0.1632E+01
  0.1631E+01
  0.1628E+01
  0.1615E+01
  0.1579E+01
  0.1506E+01
  0.1396E+01
  0.1268E+01
  0.1140E+01
  0.1022E+01
  0.9238E+00
  0.8516E+00
  0.8169E+00
  0.8344E+00
  0.8496E+00
  0.8304E+00
  0.7780E+00
  0.6653E+00
  0.5605E+00
  0.5223E+00
  0.5312E+00
  0.5433E+00
  0.5388E+00
  0.4866E+00
  0.3978E+00
  0.3224E+00
  0.2678E+00
  0.2313E+00
  0.2105E+00
  0.2022E+00
  0.2003E+00
  0.2000E+00
  0.2000E+00
  0.2000E+00
  0.2000E+00
  0.2000E+00
  0.2000E+00
  0.2000E+00
  0.2000E+00
  0.2000E+00
  0.2000E+00
  0.2000E+00
  0.2000E+00
  0.2000E+00
  0.1604E+01
  0.1604E+01
  0.1604E+01
  0.1604E+01
  0.1604E+01
  0.1604E+01
  0.1604E+01
  0.1604E+01
  0.1604E+01
  0.1604E+01
  0.1604E+01
  0.1604E+01
  0.1604E+01
  0.1604E+01
  0.1604E+01
  0.1604E+01
  0.1604E+01
  0.1603E+01
  0.1600E+01
  0.1587E+01
  0.1551E+01
  0.1479E+01
  0.1374E+01
  0.1252E+01
  0.1133E+01
  0.1027E+01
  0.9494E+00
  0.9052E+00
  0.8871E+00
  0.8724E+00
  0.8456E+00
  0.7699E+00
  0.6499E+00
  0.5450E+00
  0.5130E+00
  0.5213E+00
  0.5377E+00
  0.5358E+00
  0.4884E+00
  0.3999E+00
  0.3227E+00
  0.2678E+00
  0.2314E+00
  0.2109E+00
  0.2025E+00
  0.2003E+00
  0.2000E+00
  0.2000E+00
  0.2000E+00
  0.2000E+00
  0.2000E+00
  0.2000E+00
  0.2000E+00
  0.2000E+00
  0.2000E+00
  0.2000E+00
  0.2000E+00
  0.2000E+00
  0.2000E+00
  0.2000E+00
  0.1535E+01
  0.1535E+01
  0.1535E+01
  0.1535E+01
  0.1535E+01
  0.1535E+01
  0.1535E+01
  0.1535E+01
  0.1535E+01
  0.1535E+01
  0.1535E+01
  0.1535E+01
  0.1535E+01
  0.1535E+01
  0.1535E+01
  0.1535E+01
  0.1534E+01
  0.1533E+01
  0.1528E+01
  0.1513E+01
  0.1475E+01
  0.1406E+01
  0.1310E+01
  0.1204E+01
  0.1107E+01
  0.1023E+01
  0.9570E+00
  0.9173E+00
  0.8875E+00
  0.8402E+00
  0.7486E+00
  0.6335E+00
  0.5386E+00
  0.5120E+00
  0.5177E+00
  0.5346E+00
  0.5329E+00
  0.4857E+00
  0.3985E+00
  0.3228E+00
  0.2677E+00
  0.2312E+00
  0.2109E+00
  0.2026E+00
  0.2004E+00
  0.2000E+00
  0.2000E+00
  0.2000E+00
  0.2000E+00
  0.2000E+00
  0.2000E+00
  0.2000E+00
  0.2000E+00
  0.2000E+00
  0.2000E+00
  0.2000E+00
  0.2000E+00
  0.2000E+00
  0.2000E+00
  0.2000E+00
  0.1378E+01
  0.1378E+01
  0.1378E+01
  0.1378E+01
  0.1378E+01
  0.1378E+01
  0.1378E+01
  0.1378E+01
  0.1378E+01
  0.1378E+01
  0.1378E+01
  0.1378E+01
  0.1378E+01
  0.1378E+01
  0.1378E+01
  0.1377E+01
  0.1377E+01
  0.1375E+01
  0.1368E+01
  0.1350E+01
  0.1313E+01
  0.1253E+01
  0.1176E+01
  0.1095E+01
  0.1021E+01
  0.9655E+00
  0.9169E+00
  0.8650E+00
  0.7978E+00
  0.7098E+00
  0.6098E+00
  0.5392E+00
  0.5197E+00
  0.5230E+00
  0.5360E+00
  0.5317E+00
  0.4834E+00
  0.3956E+00
  0.3208E+00
  0.2666E+00
  0.2305E+00
  0.2105E+00
  0.2025E+00
  0.2004E+00
  0.2000E+00
  0.2000E+00
  0.2000E+00
  0.2000E+00
  0.2000E+00
  0.2000E+00
  0.2000E+00
  0.2000E+00
  0.2000E+00
  0.2000E+00
  0.2000E+00
  0.2000E+00
  0.2000E+00
  0.2000E+00
  0.2000E+00
  0.2000E+00
  0.1156E+01
  0.1156E+01
  0.1156E+01
  0.1156E+01
  0.1156E+01
  0.1156E+01
  0.1156E+01
  0.1156E+01
  0.1156E+01
  0.1156E+01
  0.1156E+01
  0.1156E+01
  0.1156E+01
  0.1156E+01
  0.1156E+01
  0.1156E+01
  0.1155E+01
  0.1152E+01
  0.1143E+01
  0.1125E+01
  0.1092E+01
  0.1045E+01
  0.9913E+00
  0.9363E+00
  0.8837E+00
  0.8329E+00
  0.7832E+00
  0.7238E+00
  0.6541E+00
  0.5878E+00
  0.5488E+00
  0.5327E+00
  0.5369E+00
  0.5437E+00
  0.5322E+00
  0.4783E+00
  0.3920E+00
  0.3172E+00
  0.2640E+00
  0.2288E+00
  0.2097E+00
  0.2022E+00
  0.2003E+00
  0.2000E+00
  0.2000E+00
  0.2000E+00
  0.2000E+00
  0.2000E+00
  0.2000E+00
  0.2000E+00
  0.2000E+00
  0.2000E+00
  0.2000E+00
  0.2000E+00
  0.2000E+00
  0.2000E+00
  0.2000E+00
  0.2000E+00
  0.2000E+00
  0.2000E+00
  0.9424E+00
  0.9424E+00
  0.9424E+00
  0.9424E+00
  0.9424E+00
  0.9424E+00
  0.9424E+00
  0.9424E+00
  0.9424E+00
  0.9424E+00
  0.9424E+00
  0.9424E+00
  0.9424E+00
  0.9424E+00
  0.9423E+00
  0.9420E+00
  0.9409E+00
  0.9372E+00
  0.9278E+00
  0.9098E+00
  0.8828E+00
  0.8498E+00
  0.8137E+00
  0.7764E+00
  0.7373E+00
  0.6949E+00
  0.6511E+00
  0.6099E+00
  0.5806E+00
  0.5644E+00
  0.5550E+00
  0.5583E+00
  0.5551E+00
  0.5330E+00
  0.4660E+00
  0.3816E+00
  0.3105E+00
  0.2592E+00
  0.2259E+00
  0.2084E+00
  0.2019E+00
  0.2003E+00
  0.2000E+00
  0.2000E+00
  0.2000E+00
  0.2000E+00
  0.2000E+00
  0.2000E+00
  0.2000E+00
  0.2000E+00
  0.2000E+00
  0.2000E+00
  0.2000E+00
  0.2000E+00
  0.2000E+00
  0.2000E+00
  0.2000E+00
  0.2000E+00
  0.2000E+00
  0.2000E+00
  0.7958E+00
  0.7958E+00
  0.7958E+00
  0.7958E+00
  0.7958E+00
  0.7958E+00
  0.7958E+00
  0.7958E+00
  0.7958E+00
  0.7958E+00
  0.7958E+00
  0.7958E+00
  0.7957E+00
  0.7957E+00
  0.7957E+00
  0.7953E+00
  0.7940E+00
  0.7897E+00
  0.7799E+00
  0.7636E+00
  0.7424E+00
  0.7193E+00
  0.6953E+00
  0.6708E+00
  0.6473E+00
  0.6256E+00
  0.6078E+00
  0.5936E+00
  0.5840E+00
  0.5806E+00
  0.5763E+00
  0.5635E+00
  0.5258E+00
  0.4465E+00
  0.3631E+00
  0.2977E+00
  0.2509E+00
  0.2213E+00
  0.2066E+00
  0.2014E+00
  0.2002E+00
  0.2000E+00
  0.2000E+00
  0.2000E+00
  0.2000E+00
  0.2000E+00
  0.2000E+00
  0.2000E+00
  0.2000E+00
  0.2000E+00
  0.2000E+00
  0.2000E+00
  0.2000E+00
  0.2000E+00
  0.2000E+00
  0.2000E+00
  0.2000E+00
  0.2000E+00
  0.2000E+00
  0.2000E+00
  0.7527E+00
  0.7527E+00
  0.7527E+00
  0.7527E+00
  0.7527E+00
  0.7527E+00
  0.7527E+00
  0.7527E+00
  0.7527E+00
  0.7527E+00
  0.7527E+00
  0.7527E+00
  0.7527E+00
  0.7527E+00
  0.7526E+00
  0.7522E+00
  0.7506E+00
  0.7460E+00
  0.7365E+00
  0.7224E+00
  0.7058E+00
  0.6889E+00
  0.6716E+00
  0.6552E+00
  0.6394E+00
  0.6266E+00
  0.6167E+00
  0.6094E+00
  0.6027E+00
  0.5881E+00
  0.5595E+00
  0.4979E+00
  0.4134E+00
  0.3369E+00
  0.2794E+00
  0.2394E+00
  0.2154E+00
  0.2044E+00
  0.2008E+00
  0.2001E+00
  0.2000E+00
  0.2000E+00
  0.2000E+00
  0.2000E+00
  0.2000E+00
  0.2000E+00
  0.2000E+00
  0.2000E+00
  0.2000E+00
  0.2000E+00
  0.2000E+00
  0.2000E+00
  0.2000E+00
  0.2000E+00
  0.2000E+00
  0.2000E+00
  0.2000E+00
  0.2000E+00
  0.2000E+00
  0.2000E+00
  0.7544E+00
  0.7544E+00
  0.7544E+00
  0.7544E+00
  0.7544E+00
  0.7544E+00
  0.7544E+00
  0.7544E+00
  0.7544E+00
  0.7544E+00
  0.7544E+00
  0.7544E+00
  0.7544E+00
  0.7544E+00
  0.7543E+00
  0.7539E+00
  0.7522E+00
  0.7475E+00
  0.7384E+00
  0.7253E+00
  0.7102E+00
  0.6946E+00
  0.6789E+00
  0.6639E+00
  0.6525E+00
  0.6411E+00
  0.6257E+00
  0.6068E+00
  0.5745E+00
  0.5168E+00
  0.4395E+00
  0.3629E+00
  0.3014E+00
  0.2560E+00
  0.2256E+00
  0.2091E+00
  0.2023E+00
  0.2004E+00
  0.2001E+00
  0.2000E+00
  0.2000E+00
  0.2000E+00
  0.2000E+00
  0.2000E+00
  0.2000E+00
  0.2000E+00
  0.2000E+00
  0.2000E+00
  0.2000E+00
  0.2000E+00
  0.2000E+00
  0.2000E+00
  0.2000E+00
  0.2000E+00
  0.2000E+00
  0.2000E+00
  0.2000E+00
  0.2000E+00
  0.2000E+00
  0.2000E+00
  0.7498E+00
  0.7498E+00
  0.7498E+00
  0.7498E+00
  0.7498E+00
  0.7498E+00
  0.7498E+00
  0.7498E+00
  0.7498E+00
  0.7498E+00
  0.7498E+00
  0.7498E+00
  0.7498E+00
  0.7498E+00
  0.7497E+00
  0.7492E+00
  0.7474E+00
  0.7427E+00
  0.7339E+00
  0.7214E+00
  0.7066E+00
  0.6901E+00
  0.6723E+00
  0.6531E+00
  0.6307E+00
  0.5983E+00
  0.5550E+00
  0.4946E+00
  0.4249E+00
  0.3601E+00
  0.3052E+00
  0.2621E+00
  0.2313E+00
  0.2127E+00
  0.2039E+00
  0.2009E+00
  0.2001E+00
  0.2000E+00
  0.2000E+00
  0.2000E+00
  0.2000E+00
  0.2000E+00
  0.2000E+00
  0.2000E+00
  0.2000E+00
  0.2000E+00
  0.2000E+00
  0.2000E+00
  0.2000E+00
  0.2000E+00
  0.2000E+00
  0.2000E+00
  0.2000E+00
  0.2000E+00
  0.2000E+00
  0.2000E+00
  0.2000E+00
  0.2000E+00
  0.2000E+00
  0.2000E+00
  0.6311E+00
  0.6311E+00
  0.6311E+00
  0.6311E+00
  0.6311E+00
  0.6311E+00
  0.6311E+00
  0.6311E+00
  0.6311E+00
  0.6311E+00
  0.6311E+00
  0.6311E+00
  0.6311E+00
  0.6311E+00
  0.6310E+00
  0.6305E+00
  0.6288E+00
  0.6245E+00
  0.6165E+00
  0.6043E+00
  0.5875E+00
  0.5653E+00
  0.5374E+00
  0.5033E+00
  0.4603E+00
  0.4143E+00
  0.3681E+00
  0.3237E+00
  0.2845E+00
  0.2521E+00
  0.2276E+00
  0.2121E+00
  0.2041E+00
  0.2011E+00
  0.2002E+00
  0.2000E+00
  0.2000E+00
  0.2000E+00
  0.2000E+00
  0.2000E+00
  0.2000E+00
  0.2000E+00
  0.2000E+00
  0.2000E+00
  0.2000E+00
  0.2000E+00
  0.2000E+00
  0.2000E+00
  0.2000E+00
  0.2000E+00
  0.2000E+00
  0.2000E+00
  0.2000E+00
  0.2000E+00
  0.2000E+00
  0.2000E+00
  0.2000E+00
  0.2000E+00
  0.2000E+00
  0.2000E+00
  0.3817E+00
  0.3817E+00
  0.3817E+00
  0.3817E+00
  0.3817E+00
  0.3817E+00
  0.3817E+00
  0.3817E+00
  0.3817E+00
  0.3817E+00
  0.3817E+00
  0.3817E+00
  0.3817E+00
  0.3817E+00
  0.3817E+00
  0.3814E+00
  0.3806E+00
  0.3785E+00
  0.3745E+00
  0.3680E+00
  0.3582E+00
  0.3449E+00
  0.3284E+00
  0.3093E+00
  0.2884E+00
  0.2671E+00
  0.2469E+00
  0.2293E+00
  0.2157E+00
  0.2070E+00
  0.2025E+00
  0.2007E+00
  0.2002E+00
  0.2000E+00
  0.2000E+00
  0.2000E+00
  0.2000E+00
  0.2000E+00
  0.2000E+00
  0.2000E+00
  0.2000E+00
  0.2000E+00
  0.2000E+00
  0.2000E+00
  0.2000E+00
  0.2000E+00
  0.2000E+00
  0.2000E+00
  0.2000E+00
  0.2000E+00
  0.2000E+00
  0.2000E+00
  0.2000E+00
  0.2000E+00
  0.2000E+00
  0.2000E+00
  0.2000E+00
  0.2000E+00
  0.2000E+00
  0.2000E+00
  0.2423E+00
  0.2423E+00
  0.2423E+00
  0.2423E+00
  0.2423E+00
  0.2423E+00
  0.2423E+00
  0.2423E+00
  0.2423E+00
  0.2423E+00
  0.2423E+00
  0.2423E+00
  0.2423E+00
  0.2423E+00
  0.2422E+00
  0.2422E+00
  0.2420E+00
  0.2414E+00
  0.2403E+00
  0.2383E+00
  0.2352E+00
  0.2308E+00
  0.2254E+00
  0.2193E+00
  0.2133E+00
  0.2081E+00
  0.2043E+00
  0.2019E+00
  0.2007E+00
  0.2002E+00
  0.2000E+00
  0.2000E+00
  0.2000E+00
  0.2000E+00
  0.2000E+00
  0.2000E+00
  0.2000E+00
  0.2000E+00
  0.2000E+00
  0.2000E+00
  0.2000E+00
  0.2000E+00
  0.2000E+00
  0.2000E+00
  0.2000E+00
  0.2000E+00
  0.2000E+00
  0.2000E+00
  0.2000E+00
  0.2000E+00
  0.2000E+00
  0.2000E+00
  0.2000E+00
  0.2000E+00
  0.2000E+00
  0.2000E+00
  0.2000E+00
  0.2000E+00
  0.2000E+00
  0.2000E+00
  0.2022E+00
  0.2022E+00
  0.2022E+00
  0.2022E+00