# vtk DataFile Version 3.0
vtk output
ASCII
DATASET RECTILINEAR_GRID
DIMENSIONS          61          61 1
X_COORDINATES    61 double
  0.0000E+00
  0.1667E+00
  0.3333E+00
  0.5000E+00
  0.6667E+00
  0.8333E+00
  0.1000E+01
  0.1167E+01
  0.1333E+01
  0.1500E+01
  0.1667E+01
  0.1833E+01
  0.2000E+01
  0.2167E+01
  0.2333E+01
  0.2500E+01
  0.2667E+01
  0.2833E+01
  0.3000E+01
  0.3167E+01
  0.3333E+01
  0.3500E+01
  0.3667E+01
  0.3833E+01
  0.4000E+01
  0.4167E+01
  0.4333E+01
  0.4500E+01
  0.4667E+01
  0.4833E+01
  0.5000E+01
  0.5167E+01
  0.5333E+01
  0.5500E+01
  0.5667E+01
  0.5833E+01
  0.6000E+01
  0.6167E+01
  0.6333E+01
  0.6500E+01
  0.6667E+01
  0.6833E+01
  0.7000E+01
  0.7167E+01
  0.7333E+01
  0.7500E+01
  0.7667E+01
  0.7833E+01
  0.8000E+01
  0.8167E+01
  0.8333E+01
  0.8500E+01
  0.8667E+01
  0.8833E+01
  0.9000E+01
  0.9167E+01
  0.9333E+01
  0.9500E+01
  0.9667E+01
  0.9833E+01
  0.1000E+02
Y_COORDINATES    61 double
  0.0000E+00
  0.1667E+00
  0.3333E+00
  0.5000E+00
  0.6667E+00
  0.8333E+00
  0.1000E+01
  0.1167E+01
  0.1333E+01
  0.1500E+01
  0.1667E+01
  0.1833E+01
  0.2000E+01
  0.2167E+01
  0.2333E+01
  0.2500E+01
  0.2667E+01
  0.2833E+01
  0.3000E+01
  0.3167E+01
  0.3333E+01
  0.3500E+01
  0.3667E+01
  0.3833E+01
  0.4000E+01
  0.4167E+01
  0.4333E+01
  0.4500E+01
  0.4667E+01
  0.4833E+01
  0.5000E+01
  0.5167E+01
  0.5333E+01
  0.5500E+01
  0.5667E+01
  0.5833E+01
  0.6000E+01
  0.6167E+01
  0.6333E+01
  0.6500E+01
  0.6667E+01
  0.6833E+01
  0.7000E+01
  0.7167E+01
  0.7333E+01
  0.7500E+01
  0.7667E+01
  0.7833E+01
  0.8000E+01
  0.8167E+01
  0.8333E+01
  0.8500E+01
  0.8667E+01
  0.8833E+01
  0.9000E+01
  0.9167E+01
  0.9333E+01
  0.9500E+01
  0.9667E+01
  0.9833E+01
  0.1000E+02
Z_COORDINATES 1 double
0
CELL_DATA                 3600
FIELD FieldData 4
density 1                 3600 double
  0.3422E+01
  0.3422E+01
  0.3422E+01
  0.3421E+01
  0.3420E+01
  0.3416E+01
  0.3403E+01
  0.3376E+01
  0.3325E+01
  0.3249E+01
  0.3154E+01
  0.3048E+01
  0.2938E+01
  0.2829E+01
  0.2721E+01
  0.2615E+01
  0.2513E+01
  0.2415E+01
  0.2320E+01
  0.2229E+01
  0.2142E+01
  0.2058E+01
  0.1978E+01
  0.1902E+01
  0.1829E+01
  0.1758E+01
  0.1691E+01
  0.1627E+01
  0.1565E+01
  0.1506E+01
  0.1450E+01
  0.1395E+01
  0.1343E+01
  0.1293E+01
  0.1244E+01
  0.1198E+01
  0.1154E+01
  0.1111E+01
  0.1071E+01
  0.1032E+01
  0.9947E+00
  0.9593E+00
  0.9256E+00
  0.8935E+00
  0.8630E+00
  0.8348E+00
  0.8104E+00
  0.7906E+00
  0.7827E+00
  0.7832E+00
  0.7915E+00
  0.8088E+00
  0.8279E+00
  0.8427E+00
  0.8842E+00
  0.1089E+01
  0.1832E+01
  0.2571E+01
  0.2114E+01
  0.1753E+01
  0.3420E+01
  0.3420E+01
  0.3420E+01
  0.3419E+01
  0.3418E+01
  0.3414E+01
  0.3401E+01
  0.3374E+01
  0.3323E+01
  0.3248E+01
  0.3153E+01
  0.3047E+01
  0.2937E+01
  0.2827E+01
  0.2719E+01
  0.2614E+01
  0.2512E+01
  0.2414E+01
  0.2319E+01
  0.2228E+01
  0.2141E+01
  0.2057E+01
  0.1977E+01
  0.1901E+01
  0.1827E+01
  0.1757E+01
  0.1690E+01
  0.1626E+01
  0.1564E+01
  0.1505E+01
  0.1448E+01
  0.1394E+01
  0.1342E+01
  0.1292E+01
  0.1243E+01
  0.1197E+01
  0.1153E+01
  0.1110E+01
  0.1069E+01
  0.1031E+01
  0.9935E+00
  0.9581E+00
  0.9244E+00
  0.8922E+00
  0.8617E+00
  0.8335E+00
  0.8089E+00
  0.7891E+00
  0.7808E+00
  0.7813E+00
  0.7891E+00
  0.8063E+00
  0.8256E+00
  0.8410E+00
  0.8842E+00
  0.1093E+01
  0.1844E+01
  0.2572E+01
  0.2112E+01
  0.1761E+01
  0.3416E+01
  0.3416E+01
  0.3416E+01
  0.3415E+01
  0.3414E+01
  0.3410E+01
  0.3398E+01
  0.3370E+01
  0.3320E+01
  0.3245E+01
  0.3150E+01
  0.3044E+01
  0.2935E+01
  0.2825E+01
  0.2717E+01
  0.2612E+01
  0.2510E+01
  0.2411E+01
  0.2316E+01
  0.2225E+01
  0.2138E+01
  0.2055E+01
  0.1975E+01
  0.1898E+01
  0.1825E+01
  0.1755E+01
  0.1688E+01
  0.1624E+01
  0.1562E+01
  0.1503E+01
  0.1446E+01
  0.1392E+01
  0.1339E+01
  0.1289E+01
  0.1241E+01
  0.1195E+01
  0.1150E+01
  0.1108E+01
  0.1067E+01
  0.1028E+01
  0.9911E+00
  0.9557E+00
  0.9219E+00
  0.8897E+00
  0.8591E+00
  0.8307E+00
  0.8061E+00
  0.7861E+00
  0.7771E+00
  0.7773E+00
  0.7844E+00
  0.8013E+00
  0.8209E+00
  0.8374E+00
  0.8845E+00
  0.1102E+01
  0.1866E+01
  0.2573E+01
  0.2099E+01
  0.1736E+01
  0.3410E+01
  0.3410E+01
  0.3410E+01
  0.3409E+01
  0.3408E+01
  0.3404E+01
  0.3392E+01
  0.3365E+01
  0.3315E+01
  0.3240E+01
  0.3146E+01
  0.3040E+01
  0.2931E+01
  0.2821E+01
  0.2713E+01
  0.2608E+01
  0.2506E+01
  0.2408E+01
  0.2313E+01
  0.2222E+01
  0.2135E+01
  0.2051E+01
  0.1971E+01
  0.1895E+01
  0.1822E+01
  0.1752E+01
  0.1684E+01
  0.1620E+01
  0.1559E+01
  0.1499E+01
  0.1443E+01
  0.1388E+01
  0.1336E+01
  0.1286E+01
  0.1238E+01
  0.1191E+01
  0.1147E+01
  0.1104E+01
  0.1064E+01
  0.1025E+01
  0.9875E+00
  0.9520E+00
  0.9181E+00
  0.8858E+00
  0.8551E+00
  0.8266E+00
  0.8016E+00
  0.7814E+00
  0.7711E+00
  0.7711E+00
  0.7774E+00
  0.7939E+00
  0.8139E+00
  0.8322E+00
  0.8851E+00
  0.1118E+01
  0.1900E+01
  0.2561E+01
  0.2081E+01
  0.1728E+01
  0.3401E+01
  0.3401E+01
  0.3401E+01
  0.3401E+01
  0.3400E+01
  0.3395E+01
  0.3384E+01
  0.3357E+01
  0.3308E+01
  0.3234E+01
  0.3140E+01
  0.3035E+01
  0.2925E+01
  0.2816E+01
  0.2708E+01
  0.2603E+01
  0.2501E+01
  0.2402E+01
  0.2308E+01
  0.2217E+01
  0.2130E+01
  0.2046E+01
  0.1966E+01
  0.1890E+01
  0.1817E+01
  0.1747E+01
  0.1680E+01
  0.1615E+01
  0.1554E+01
  0.1495E+01
  0.1438E+01
  0.1384E+01
  0.1331E+01
  0.1281E+01
  0.1233E+01
  0.1186E+01
  0.1142E+01
  0.1099E+01
  0.1059E+01
  0.1020E+01
  0.9824E+00
  0.9467E+00
  0.9127E+00
  0.8803E+00
  0.8494E+00
  0.8207E+00
  0.7954E+00
  0.7747E+00
  0.7630E+00
  0.7624E+00
  0.7678E+00
  0.7837E+00
  0.8049E+00
  0.8259E+00
  0.8864E+00
  0.1141E+01
  0.1945E+01
  0.2543E+01
  0.2052E+01
  0.1731E+01
  0.3390E+01
  0.3390E+01
  0.3390E+01
  0.3390E+01
  0.3389E+01
  0.3385E+01
  0.3373E+01
  0.3347E+01
  0.3299E+01
  0.3226E+01
  0.3132E+01
  0.3027E+01
  0.2918E+01
  0.2808E+01
  0.2701E+01
  0.2596E+01
  0.2494E+01
  0.2396E+01
  0.2301E+01
  0.2210E+01
  0.2123E+01
  0.2040E+01
  0.1960E+01
  0.1883E+01
  0.1810E+01
  0.1740E+01
  0.1673E+01
  0.1609E+01
  0.1548E+01
  0.1488E+01
  0.1432E+01
  0.1377E+01
  0.1325E+01
  0.1275E+01
  0.1226E+01
  0.1180E+01
  0.1136E+01
  0.1093E+01
  0.1052E+01
  0.1013E+01
  0.9756E+00
  0.9398E+00
  0.9056E+00
  0.8729E+00
  0.8418E+00
  0.8127E+00
  0.7869E+00
  0.7657E+00
  0.7521E+00
  0.7506E+00
  0.7552E+00
  0.7709E+00
  0.7934E+00
  0.8181E+00
  0.8893E+00
  0.1173E+01
  0.2000E+01
  0.2505E+01
  0.1999E+01
  0.1728E+01
  0.3377E+01
  0.3377E+01
  0.3376E+01
  0.3376E+01
  0.3375E+01
  0.3371E+01
  0.3360E+01
  0.3335E+01
  0.3287E+01
  0.3215E+01
  0.3122E+01
  0.3018E+01
  0.2909E+01
  0.2799E+01
  0.2692E+01
  0.2587E+01
  0.2485E+01
  0.2387E+01
  0.2293E+01
  0.2202E+01
  0.2115E+01
  0.2031E+01
  0.1952E+01
  0.1875E+01
  0.1802E+01
  0.1732E+01
  0.1665E+01
  0.1601E+01
  0.1540E+01
  0.1480E+01
  0.1424E+01
  0.1369E+01
  0.1317E+01
  0.1267E+01
  0.1218E+01
  0.1172E+01
  0.1127E+01
  0.1084E+01
  0.1044E+01
  0.1004E+01
  0.9666E+00
  0.9306E+00
  0.8961E+00
  0.8630E+00
  0.8315E+00
  0.8020E+00
  0.7755E+00
  0.7535E+00
  0.7377E+00
  0.7351E+00
  0.7391E+00
  0.7548E+00
  0.7788E+00
  0.8096E+00
  0.8975E+00
  0.1221E+01
  0.2064E+01
  0.2440E+01
  0.1920E+01
  0.1702E+01
  0.3360E+01
  0.3360E+01
  0.3360E+01
  0.3359E+01
  0.3358E+01
  0.3354E+01
  0.3344E+01
  0.3319E+01
  0.3273E+01
  0.3202E+01
  0.3110E+01
  0.3006E+01
  0.2897E+01
  0.2788E+01
  0.2681E+01
  0.2576E+01
  0.2475E+01
  0.2376E+01
  0.2282E+01
  0.2191E+01
  0.2104E+01
  0.2021E+01
  0.1941E+01
  0.1865E+01
  0.1792E+01
  0.1722E+01
  0.1655E+01
  0.1591E+01
  0.1530E+01
  0.1470E+01
  0.1414E+01
  0.1359E+01
  0.1307E+01
  0.1257E+01
  0.1208E+01
  0.1161E+01
  0.1117E+01
  0.1074E+01
  0.1032E+01
  0.9928E+00
  0.9549E+00
  0.9184E+00
  0.8834E+00
  0.8499E+00
  0.8179E+00
  0.7877E+00
  0.7603E+00
  0.7371E+00
  0.7191E+00
  0.7155E+00
  0.7192E+00
  0.7353E+00
  0.7634E+00
  0.8050E+00
  0.9183E+00
  0.1274E+01
  0.2143E+01
  0.2325E+01
  0.1832E+01
  0.1669E+01
  0.3339E+01
  0.3339E+01
  0.3339E+01
  0.3339E+01
  0.3338E+01
  0.3335E+01
  0.3324E+01
  0.3301E+01
  0.3256E+01
  0.3186E+01
  0.3095E+01
  0.2992E+01
  0.2884E+01
  0.2775E+01
  0.2667E+01
  0.2563E+01
  0.2461E+01
  0.2363E+01
  0.2269E+01
  0.2179E+01
  0.2092E+01
  0.2009E+01
  0.1929E+01
  0.1853E+01
  0.1780E+01
  0.1710E+01
  0.1643E+01
  0.1579E+01
  0.1517E+01
  0.1458E+01
  0.1401E+01
  0.1347E+01
  0.1294E+01
  0.1243E+01
  0.1195E+01
  0.1148E+01
  0.1103E+01
  0.1059E+01
  0.1018E+01
  0.9778E+00
  0.9393E+00
  0.9023E+00
  0.8667E+00
  0.8325E+00
  0.7998E+00
  0.7689E+00
  0.7406E+00
  0.7159E+00
  0.6959E+00
  0.6921E+00
  0.6958E+00
  0.7143E+00
  0.7534E+00
  0.8115E+00
  0.9483E+00
  0.1334E+01
  0.2164E+01
  0.2209E+01
  0.1728E+01
  0.1634E+01
  0.3315E+01
  0.3315E+01
  0.3315E+01
  0.3315E+01
  0.3314E+01
  0.3311E+01
  0.3301E+01
  0.3279E+01
  0.3235E+01
  0.3167E+01
  0.3077E+01
  0.2975E+01
  0.2867E+01
  0.2758E+01
  0.2651E+01
  0.2547E+01
  0.2446E+01
  0.2348E+01
  0.2253E+01
  0.2163E+01
  0.2076E+01
  0.1993E+01
  0.1914E+01
  0.1837E+01
  0.1765E+01
  0.1695E+01
  0.1628E+01
  0.1563E+01
  0.1502E+01
  0.1442E+01
  0.1385E+01
  0.1330E+01
  0.1278E+01
  0.1227E+01
  0.1178E+01
  0.1130E+01
  0.1085E+01
  0.1041E+01
  0.9988E+00
  0.9582E+00
  0.9191E+00
  0.8815E+00
  0.8452E+00
  0.8103E+00
  0.7770E+00
  0.7453E+00
  0.7160E+00
  0.6898E+00
  0.6688E+00
  0.6656E+00
  0.6713E+00
  0.6973E+00
  0.7545E+00
  0.8327E+00
  0.9865E+00
  0.1389E+01
  0.2143E+01
  0.2082E+01
  0.1618E+01
  0.1587E+01
  0.3287E+01
  0.3287E+01
  0.3286E+01
  0.3286E+01
  0.3285E+01
  0.3282E+01
  0.3273E+01
  0.3252E+01
  0.3210E+01
  0.3143E+01
  0.3055E+01
  0.2954E+01
  0.2846E+01
  0.2738E+01
  0.2631E+01
  0.2527E+01
  0.2426E+01
  0.2328E+01
  0.2234E+01
  0.2144E+01
  0.2057E+01
  0.1974E+01
  0.1895E+01
  0.1818E+01
  0.1745E+01
  0.1675E+01
  0.1608E+01
  0.1544E+01
  0.1482E+01
  0.1422E+01
  0.1365E+01
  0.1310E+01
  0.1256E+01
  0.1205E+01
  0.1156E+01
  0.1108E+01
  0.1062E+01
  0.1017E+01
  0.9745E+00
  0.9334E+00
  0.8937E+00
  0.8555E+00
  0.8187E+00
  0.7833E+00
  0.7494E+00
  0.7171E+00
  0.6871E+00
  0.6590E+00
  0.6397E+00
  0.6386E+00
  0.6496E+00
  0.6943E+00
  0.7735E+00
  0.8644E+00
  0.1024E+01
  0.1430E+01
  0.2076E+01
  0.1928E+01
  0.1533E+01
  0.1531E+01
  0.3252E+01
  0.3252E+01
  0.3252E+01
  0.3252E+01
  0.3251E+01
  0.3248E+01
  0.3240E+01
  0.3219E+01
  0.3179E+01
  0.3115E+01
  0.3028E+01
  0.2928E+01
  0.2821E+01
  0.2713E+01
  0.2607E+01
  0.2503E+01
  0.2402E+01
  0.2304E+01
  0.2210E+01
  0.2120E+01
  0.2033E+01
  0.1950E+01
  0.1871E+01
  0.1794E+01
  0.1721E+01
  0.1651E+01
  0.1584E+01
  0.1519E+01
  0.1457E+01
  0.1397E+01
  0.1339E+01
  0.1283E+01
  0.1230E+01
  0.1178E+01
  0.1128E+01
  0.1079E+01
  0.1033E+01
  0.9881E+00
  0.9449E+00
  0.9033E+00
  0.8633E+00
  0.8247E+00
  0.7876E+00
  0.7520E+00
  0.7179E+00
  0.6852E+00
  0.6546E+00
  0.6246E+00
  0.6122E+00
  0.6146E+00
  0.6418E+00
  0.7118E+00
  0.8071E+00
  0.9016E+00
  0.1057E+01
  0.1453E+01
  0.1979E+01
  0.1770E+01
  0.1460E+01
  0.1476E+01
  0.3210E+01
  0.3210E+01
  0.3209E+01
  0.3209E+01
  0.3209E+01
  0.3206E+01
  0.3198E+01
  0.3179E+01
  0.3141E+01
  0.3079E+01
  0.2995E+01
  0.2896E+01
  0.2790E+01
  0.2682E+01
  0.2576E+01
  0.2472E+01
  0.2372E+01
  0.2274E+01
  0.2180E+01
  0.2090E+01
  0.2003E+01
  0.1920E+01
  0.1840E+01
  0.1764E+01
  0.1691E+01
  0.1620E+01
  0.1553E+01
  0.1488E+01
  0.1425E+01
  0.1365E+01
  0.1307E+01
  0.1251E+01
  0.1197E+01
  0.1145E+01
  0.1094E+01
  0.1046E+01
  0.9988E+00
  0.9538E+00
  0.9104E+00
  0.8687E+00
  0.8287E+00
  0.7901E+00
  0.7531E+00
  0.7177E+00
  0.6836E+00
  0.6511E+00
  0.6190E+00
  0.5921E+00
  0.5883E+00
  0.6035E+00
  0.6573E+00
  0.7484E+00
  0.8518E+00
  0.9360E+00
  0.1080E+01
  0.1456E+01
  0.1851E+01
  0.1618E+01
  0.1391E+01
  0.1429E+01
  0.3158E+01
  0.3158E+01
  0.3158E+01
  0.3158E+01
  0.3157E+01
  0.3155E+01
  0.3148E+01
  0.3130E+01
  0.3094E+01
  0.3035E+01
  0.2953E+01
  0.2855E+01
  0.2750E+01
  0.2644E+01
  0.2538E+01
  0.2435E+01
  0.2334E+01
  0.2237E+01
  0.2143E+01
  0.2053E+01
  0.1966E+01
  0.1883E+01
  0.1803E+01
  0.1727E+01
  0.1653E+01
  0.1583E+01
  0.1515E+01
  0.1450E+01
  0.1387E+01
  0.1326E+01
  0.1268E+01
  0.1212E+01
  0.1158E+01
  0.1106E+01
  0.1055E+01
  0.1007E+01
  0.9602E+00
  0.9153E+00
  0.8723E+00
  0.8309E+00
  0.7913E+00
  0.7532E+00
  0.7168E+00
  0.6818E+00
  0.6481E+00
  0.6152E+00
  0.5817E+00
  0.5685E+00
  0.5764E+00
  0.6163E+00
  0.6954E+00
  0.8003E+00
  0.8971E+00
  0.9626E+00
  0.1090E+01
  0.1430E+01
  0.1693E+01
  0.1478E+01
  0.1328E+01
  0.1391E+01
  0.3095E+01
  0.3095E+01
  0.3095E+01
  0.3095E+01
  0.3094E+01
  0.3092E+01
  0.3086E+01
  0.3070E+01
  0.3037E+01
  0.2980E+01
  0.2900E+01
  0.2805E+01
  0.2701E+01
  0.2596E+01
  0.2491E+01
  0.2388E+01
  0.2288E+01
  0.2191E+01
  0.2097E+01
  0.2007E+01
  0.1921E+01
  0.1838E+01
  0.1758E+01
  0.1682E+01
  0.1608E+01
  0.1538E+01
  0.1470E+01
  0.1405E+01
  0.1342E+01
  0.1282E+01
  0.1224E+01
  0.1168E+01
  0.1114E+01
  0.1063E+01
  0.1013E+01
  0.9646E+00
  0.9185E+00
  0.8743E+00
  0.8319E+00
  0.7914E+00
  0.7525E+00
  0.7154E+00
  0.6798E+00
  0.6454E+00
  0.6121E+00
  0.5766E+00
  0.5548E+00
  0.5582E+00
  0.5871E+00
  0.6548E+00
  0.7532E+00
  0.8545E+00
  0.9357E+00
  0.9831E+00
  0.1090E+01
  0.1363E+01
  0.1513E+01
  0.1358E+01
  0.1273E+01
  0.1353E+01
  0.3020E+01
  0.3020E+01
  0.3020E+01
  0.3019E+01
  0.3019E+01
  0.3017E+01
  0.3012E+01
  0.2997E+01
  0.2967E+01
  0.2913E+01
  0.2837E+01
  0.2744E+01
  0.2642E+01
  0.2538E+01
  0.2434E+01
  0.2332E+01
  0.2232E+01
  0.2136E+01
  0.2043E+01
  0.1954E+01
  0.1868E+01
  0.1785E+01
  0.1706E+01
  0.1630E+01
  0.1557E+01
  0.1487E+01
  0.1420E+01
  0.1355E+01
  0.1293E+01
  0.1233E+01
  0.1176E+01
  0.1121E+01
  0.1068E+01
  0.1017E+01
  0.9676E+00
  0.9205E+00
  0.8754E+00
  0.8323E+00
  0.7910E+00
  0.7515E+00
  0.7139E+00
  0.6779E+00
  0.6431E+00
  0.6094E+00
  0.5738E+00
  0.5460E+00
  0.5462E+00
  0.5679E+00
  0.6249E+00
  0.7147E+00
  0.8147E+00
  0.9048E+00
  0.9631E+00
  0.9878E+00
  0.1065E+01
  0.1244E+01
  0.1327E+01
  0.1268E+01
  0.1223E+01
  0.1306E+01
  0.2932E+01
  0.2932E+01
  0.2932E+01
  0.2932E+01
  0.2932E+01
  0.2930E+01
  0.2925E+01
  0.2913E+01
  0.2885E+01
  0.2835E+01
  0.2762E+01
  0.2672E+01
  0.2573E+01
  0.2470E+01
  0.2367E+01
  0.2267E+01
  0.2169E+01
  0.2073E+01
  0.1982E+01
  0.1893E+01
  0.1808E+01
  0.1726E+01
  0.1648E+01
  0.1573E+01
  0.1501E+01
  0.1431E+01
  0.1365E+01
  0.1301E+01
  0.1240E+01
  0.1182E+01
  0.1125E+01
  0.1071E+01
  0.1019E+01
  0.9697E+00
  0.9219E+00
  0.8761E+00
  0.8323E+00
  0.7905E+00
  0.7505E+00
  0.7125E+00
  0.6761E+00
  0.6410E+00
  0.6072E+00
  0.5716E+00
  0.5413E+00
  0.5391E+00
  0.5555E+00
  0.6052E+00
  0.6856E+00
  0.7809E+00
  0.8733E+00
  0.9462E+00
  0.9687E+00
  0.9694E+00
  0.9946E+00
  0.1078E+01
  0.1164E+01
  0.1212E+01
  0.1180E+01
  0.1258E+01
  0.2834E+01
  0.2834E+01
  0.2834E+01
  0.2834E+01
  0.2834E+01
  0.2833E+01
  0.2829E+01
  0.2817E+01
  0.2792E+01
  0.2746E+01
  0.2678E+01
  0.2591E+01
  0.2495E+01
  0.2394E+01
  0.2293E+01
  0.2194E+01
  0.2098E+01
  0.2004E+01
  0.1914E+01
  0.1827E+01
  0.1743E+01
  0.1662E+01
  0.1585E+01
  0.1512E+01
  0.1441E+01
  0.1373E+01
  0.1308E+01
  0.1246E+01
  0.1186E+01
  0.1129E+01
  0.1074E+01
  0.1022E+01
  0.9713E+00
  0.9230E+00
  0.8767E+00
  0.8325E+00
  0.7902E+00
  0.7498E+00
  0.7114E+00
  0.6748E+00
  0.6395E+00
  0.6054E+00
  0.5700E+00
  0.5387E+00
  0.5353E+00
  0.5490E+00
  0.5939E+00
  0.6669E+00
  0.7564E+00
  0.8480E+00
  0.9273E+00
  0.9576E+00
  0.9544E+00
  0.9102E+00
  0.8626E+00
  0.8995E+00
  0.1041E+01
  0.1179E+01
  0.1158E+01
  0.1223E+01
  0.2729E+01
  0.2729E+01
  0.2729E+01
  0.2728E+01
  0.2728E+01
  0.2727E+01
  0.2724E+01
  0.2714E+01
  0.2692E+01
  0.2650E+01
  0.2586E+01
  0.2504E+01
  0.2410E+01
  0.2312E+01
  0.2214E+01
  0.2117E+01
  0.2023E+01
  0.1931E+01
  0.1842E+01
  0.1757E+01
  0.1675E+01
  0.1596E+01
  0.1521E+01
  0.1449E+01
  0.1380E+01
  0.1314E+01
  0.1251E+01
  0.1190E+01
  0.1132E+01
  0.1077E+01
  0.1024E+01
  0.9730E+00
  0.9242E+00
  0.8776E+00
  0.8329E+00
  0.7903E+00
  0.7496E+00
  0.7108E+00
  0.6739E+00
  0.6384E+00
  0.6041E+00
  0.5684E+00
  0.5369E+00
  0.5331E+00
  0.5448E+00
  0.5858E+00
  0.6534E+00
  0.7392E+00
  0.8303E+00
  0.9141E+00
  0.9474E+00
  0.9450E+00
  0.8994E+00
  0.7825E+00
  0.7070E+00
  0.7559E+00
  0.9499E+00
  0.1153E+01
  0.1158E+01
  0.1202E+01
  0.2619E+01
  0.2619E+01
  0.2619E+01
  0.2619E+01
  0.2618E+01
  0.2617E+01
  0.2615E+01
  0.2606E+01
  0.2587E+01
  0.2549E+01
  0.2490E+01
  0.2412E+01
  0.2322E+01
  0.2227E+01
  0.2132E+01
  0.2037E+01
  0.1945E+01
  0.1856E+01
  0.1770E+01
  0.1686E+01
  0.1607E+01
  0.1530E+01
  0.1457E+01
  0.1387E+01
  0.1320E+01
  0.1256E+01
  0.1195E+01
  0.1136E+01
  0.1080E+01
  0.1026E+01
  0.9750E+00
  0.9259E+00
  0.8789E+00
  0.8339E+00
  0.7909E+00
  0.7499E+00
  0.7108E+00
  0.6736E+00
  0.6378E+00
  0.6034E+00
  0.5678E+00
  0.5360E+00
  0.5319E+00
  0.5428E+00
  0.5814E+00
  0.6425E+00
  0.7206E+00
  0.8081E+00
  0.8940E+00
  0.9366E+00
  0.9350E+00
  0.8861E+00
  0.7632E+00
  0.6316E+00
  0.5921E+00
  0.6574E+00
  0.8702E+00
  0.1116E+01
  0.1168E+01
  0.1180E+01
  0.2508E+01
  0.2508E+01
  0.2508E+01
  0.2508E+01
  0.2507E+01
  0.2507E+01
  0.2504E+01
  0.2497E+01
  0.2481E+01
  0.2447E+01
  0.2392E+01
  0.2319E+01
  0.2233E+01
  0.2142E+01
  0.2049E+01
  0.1958E+01
  0.1868E+01
  0.1781E+01
  0.1697E+01
  0.1617E+01
  0.1539E+01
  0.1465E+01
  0.1394E+01
  0.1326E+01
  0.1261E+01
  0.1199E+01
  0.1140E+01
  0.1084E+01
  0.1029E+01
  0.9776E+00
  0.9281E+00
  0.8807E+00
  0.8355E+00
  0.7922E+00
  0.7508E+00
  0.7114E+00
  0.6739E+00
  0.6378E+00
  0.6031E+00
  0.5673E+00
  0.5360E+00
  0.5316E+00
  0.5412E+00
  0.5808E+00
  0.6436E+00
  0.7179E+00
  0.7986E+00
  0.8774E+00
  0.9205E+00
  0.9209E+00
  0.8705E+00
  0.7429E+00
  0.6171E+00
  0.5287E+00
  0.5277E+00
  0.6003E+00
  0.7991E+00
  0.1058E+01
  0.1169E+01
  0.1150E+01
  0.2398E+01
  0.2398E+01
  0.2398E+01
  0.2398E+01
  0.2398E+01
  0.2398E+01
  0.2396E+01
  0.2390E+01
  0.2375E+01
  0.2345E+01
  0.2296E+01
  0.2227E+01
  0.2145E+01
  0.2057E+01
  0.1968E+01
  0.1879E+01
  0.1793E+01
  0.1709E+01
  0.1627E+01
  0.1549E+01
  0.1474E+01
  0.1402E+01
  0.1333E+01
  0.1268E+01
  0.1205E+01
  0.1145E+01
  0.1088E+01
  0.1033E+01
  0.9809E+00
  0.9310E+00
  0.8832E+00
  0.8376E+00
  0.7940E+00
  0.7523E+00
  0.7126E+00
  0.6748E+00
  0.6383E+00
  0.6034E+00
  0.5669E+00
  0.5357E+00
  0.5317E+00
  0.5415E+00
  0.5772E+00
  0.6380E+00
  0.7168E+00
  0.8016E+00
  0.8809E+00
  0.9204E+00
  0.9163E+00
  0.8585E+00
  0.7272E+00
  0.6015E+00
  0.5233E+00
  0.4994E+00
  0.5071E+00
  0.5652E+00
  0.7358E+00
  0.9756E+00
  0.1146E+01
  0.1137E+01
  0.2292E+01
  0.2292E+01
  0.2292E+01
  0.2292E+01
  0.2292E+01
  0.2292E+01
  0.2290E+01
  0.2285E+01
  0.2273E+01
  0.2247E+01
  0.2201E+01
  0.2137E+01
  0.2060E+01
  0.1976E+01
  0.1890E+01
  0.1804E+01
  0.1720E+01
  0.1638E+01
  0.1560E+01
  0.1484E+01
  0.1411E+01
  0.1342E+01
  0.1275E+01
  0.1212E+01
  0.1151E+01
  0.1093E+01
  0.1038E+01
  0.9850E+00
  0.9346E+00
  0.8864E+00
  0.8404E+00
  0.7965E+00
  0.7545E+00
  0.7144E+00
  0.6762E+00
  0.6394E+00
  0.6042E+00
  0.5675E+00
  0.5355E+00
  0.5315E+00
  0.5417E+00
  0.5783E+00
  0.6348E+00
  0.7056E+00
  0.7886E+00
  0.8789E+00
  0.9231E+00
  0.9179E+00
  0.8594E+00
  0.7220E+00
  0.5956E+00
  0.5231E+00
  0.5036E+00
  0.5009E+00
  0.5088E+00
  0.5506E+00
  0.6774E+00
  0.8771E+00
  0.1073E+01
  0.1156E+01
  0.2190E+01
  0.2190E+01
  0.2190E+01
  0.2190E+01
  0.2190E+01
  0.2190E+01
  0.2189E+01
  0.2185E+01
  0.2174E+01
  0.2151E+01
  0.2110E+01
  0.2051E+01
  0.1978E+01
  0.1897E+01
  0.1814E+01
  0.1731E+01
  0.1650E+01
  0.1571E+01
  0.1495E+01
  0.1422E+01
  0.1351E+01
  0.1284E+01
  0.1220E+01
  0.1158E+01
  0.1099E+01
  0.1044E+01
  0.9901E+00
  0.9391E+00
  0.8904E+00
  0.8439E+00
  0.7996E+00
  0.7572E+00
  0.7168E+00
  0.6782E+00
  0.6410E+00
  0.6055E+00
  0.5684E+00
  0.5361E+00
  0.5317E+00
  0.5417E+00
  0.5789E+00
  0.6367E+00
  0.7057E+00
  0.7815E+00
  0.8608E+00
  0.9156E+00
  0.9163E+00
  0.8627E+00
  0.7240E+00
  0.5965E+00
  0.5277E+00
  0.5113E+00
  0.5074E+00
  0.5122E+00
  0.5235E+00
  0.5484E+00
  0.6250E+00
  0.7772E+00
  0.9557E+00
  0.1202E+01
  0.2092E+01
  0.2092E+01
  0.2092E+01
  0.2092E+01
  0.2092E+01
  0.2092E+01
  0.2091E+01
  0.2088E+01
  0.2079E+01
  0.2059E+01
  0.2022E+01
  0.1968E+01
  0.1899E+01
  0.1822E+01
  0.1742E+01
  0.1662E+01
  0.1583E+01
  0.1507E+01
  0.1433E+01
  0.1362E+01
  0.1294E+01
  0.1229E+01
  0.1166E+01
  0.1107E+01
  0.1050E+01
  0.9962E+00
  0.9445E+00
  0.8953E+00
  0.8483E+00
  0.8034E+00
  0.7606E+00
  0.7198E+00
  0.6809E+00
  0.6432E+00
  0.6073E+00
  0.5697E+00
  0.5370E+00
  0.5321E+00
  0.5420E+00
  0.5794E+00
  0.6385E+00
  0.7089E+00
  0.7841E+00
  0.8625E+00
  0.9092E+00
  0.9107E+00
  0.8627E+00
  0.7284E+00
  0.6011E+00
  0.5343E+00
  0.5195E+00
  0.5163E+00
  0.5215E+00
  0.5312E+00
  0.5400E+00
  0.5518E+00
  0.5890E+00
  0.6918E+00
  0.8203E+00
  0.1188E+01
  0.1999E+01
  0.1999E+01
  0.1999E+01
  0.1999E+01
  0.1999E+01
  0.1999E+01
  0.1998E+01
  0.1995E+01
  0.1988E+01
  0.1971E+01
  0.1938E+01
  0.1888E+01
  0.1823E+01
  0.1749E+01
  0.1672E+01
  0.1595E+01
  0.1519E+01
  0.1445E+01
  0.1374E+01
  0.1305E+01
  0.1239E+01
  0.1176E+01
  0.1116E+01
  0.1058E+01
  0.1003E+01
  0.9511E+00
  0.9012E+00
  0.8536E+00
  0.8082E+00
  0.7649E+00
  0.7236E+00
  0.6841E+00
  0.6461E+00
  0.6096E+00
  0.5717E+00
  0.5388E+00
  0.5331E+00
  0.5431E+00
  0.5793E+00
  0.6376E+00
  0.7103E+00
  0.7881E+00
  0.8667E+00
  0.9122E+00
  0.9106E+00
  0.8635E+00
  0.7333E+00
  0.6070E+00
  0.5409E+00
  0.5276E+00
  0.5253E+00
  0.5304E+00
  0.5388E+00
  0.5451E+00
  0.5505E+00
  0.5567E+00
  0.5739E+00
  0.6225E+00
  0.6919E+00
  0.1014E+01
  0.1910E+01
  0.1910E+01
  0.1910E+01
  0.1910E+01
  0.1910E+01
  0.1910E+01
  0.1909E+01
  0.1907E+01
  0.1901E+01
  0.1886E+01
  0.1857E+01
  0.1811E+01
  0.1751E+01
  0.1680E+01
  0.1607E+01
  0.1532E+01
  0.1459E+01
  0.1387E+01
  0.1318E+01
  0.1251E+01
  0.1187E+01
  0.1126E+01
  0.1068E+01
  0.1012E+01
  0.9589E+00
  0.9083E+00
  0.8601E+00
  0.8141E+00
  0.7702E+00
  0.7283E+00
  0.6882E+00
  0.6497E+00
  0.6125E+00
  0.5742E+00
  0.5416E+00
  0.5351E+00
  0.5452E+00
  0.5829E+00
  0.6409E+00
  0.7104E+00
  0.7883E+00
  0.8685E+00
  0.9142E+00
  0.9123E+00
  0.8676E+00
  0.7387E+00
  0.6126E+00
  0.5466E+00
  0.5346E+00
  0.5331E+00
  0.5381E+00
  0.5454E+00
  0.5498E+00
  0.5531E+00
  0.5583E+00
  0.5628E+00
  0.5614E+00
  0.5372E+00
  0.5090E+00
  0.6485E+00
  0.1826E+01
  0.1826E+01
  0.1826E+01
  0.1826E+01
  0.1826E+01
  0.1826E+01
  0.1826E+01
  0.1824E+01
  0.1819E+01
  0.1806E+01
  0.1781E+01
  0.1739E+01
  0.1682E+01
  0.1615E+01
  0.1544E+01
  0.1472E+01
  0.1401E+01
  0.1332E+01
  0.1265E+01
  0.1201E+01
  0.1139E+01
  0.1079E+01
  0.1023E+01
  0.9687E+00
  0.9173E+00
  0.8683E+00
  0.8215E+00
  0.7769E+00
  0.7343E+00
  0.6935E+00
  0.6546E+00
  0.6163E+00
  0.5773E+00
  0.5462E+00
  0.5384E+00
  0.5486E+00
  0.5854E+00
  0.6460E+00
  0.7191E+00
  0.7934E+00
  0.8661E+00
  0.9130E+00
  0.9119E+00
  0.8653E+00
  0.7381E+00
  0.6144E+00
  0.5504E+00
  0.5400E+00
  0.5396E+00
  0.5443E+00
  0.5503E+00
  0.5533E+00
  0.5554E+00
  0.5596E+00
  0.5638E+00
  0.5608E+00
  0.5236E+00
  0.4419E+00
  0.3541E+00
  0.3760E+00
  0.1749E+01
  0.1749E+01
  0.1749E+01
  0.1749E+01
  0.1749E+01
  0.1749E+01
  0.1749E+01
  0.1747E+01
  0.1743E+01
  0.1732E+01
  0.1710E+01
  0.1672E+01
  0.1619E+01
  0.1556E+01
  0.1488E+01
  0.1418E+01
  0.1350E+01
  0.1283E+01
  0.1218E+01
  0.1155E+01
  0.1095E+01
  0.1037E+01
  0.9821E+00
  0.9296E+00
  0.8795E+00
  0.8318E+00
  0.7863E+00
  0.7428E+00
  0.7012E+00
  0.6612E+00
  0.6214E+00
  0.5817E+00
  0.5551E+00
  0.5450E+00
  0.5555E+00
  0.5929E+00
  0.6512E+00
  0.7240E+00
  0.8039E+00
  0.8780E+00
  0.9118E+00
  0.9095E+00
  0.8594E+00
  0.7319E+00
  0.6115E+00
  0.5505E+00
  0.5425E+00
  0.5434E+00
  0.5487E+00
  0.5538E+00
  0.5553E+00
  0.5564E+00
  0.5601E+00
  0.5642E+00
  0.5613E+00
  0.5275E+00
  0.4459E+00
  0.3605E+00
  0.2873E+00
  0.2673E+00
  0.1684E+01
  0.1684E+01
  0.1684E+01
  0.1684E+01
  0.1684E+01
  0.1684E+01
  0.1684E+01
  0.1682E+01
  0.1679E+01
  0.1670E+01
  0.1650E+01
  0.1616E+01
  0.1566E+01
  0.1506E+01
  0.1440E+01
  0.1373E+01
  0.1306E+01
  0.1241E+01
  0.1178E+01
  0.1117E+01
  0.1058E+01
  0.1002E+01
  0.9482E+00
  0.8968E+00
  0.8476E+00
  0.8006E+00
  0.7556E+00
  0.7125E+00
  0.6707E+00
  0.6295E+00
  0.5937E+00
  0.5704E+00
  0.5576E+00
  0.5678E+00
  0.6060E+00
  0.6662E+00
  0.7361E+00
  0.8103E+00
  0.8844E+00
  0.9197E+00
  0.9110E+00
  0.8535E+00
  0.7242E+00
  0.6057E+00
  0.5471E+00
  0.5400E+00
  0.5434E+00
  0.5501E+00
  0.5552E+00
  0.5561E+00
  0.5566E+00
  0.5598E+00
  0.5637E+00
  0.5610E+00
  0.5271E+00
  0.4464E+00
  0.3625E+00
  0.2958E+00
  0.2477E+00
  0.2249E+00
  0.1633E+01
  0.1633E+01
  0.1633E+01
  0.1633E+01
  0.1633E+01
  0.1633E+01
  0.1633E+01
  0.1632E+01
  0.1629E+01
  0.1621E+01
  0.1604E+01
  0.1573E+01
  0.1527E+01
  0.1470E+01
  0.1407E+01
  0.1342E+01
  0.1276E+01
  0.1212E+01
  0.1149E+01
  0.1089E+01
  0.1031E+01
  0.9756E+00
  0.9224E+00
  0.8713E+00
  0.8221E+00
  0.7748E+00
  0.7295E+00
  0.6871E+00
  0.6486E+00
  0.6162E+00
  0.5900E+00
  0.5761E+00
  0.5869E+00
  0.6255E+00
  0.6860E+00
  0.7571E+00
  0.8285E+00
  0.8933E+00
  0.9240E+00
  0.9167E+00
  0.8569E+00
  0.7209E+00
  0.5998E+00
  0.5412E+00
  0.5346E+00
  0.5395E+00
  0.5488E+00
  0.5551E+00
  0.5563E+00
  0.5567E+00
  0.5593E+00
  0.5628E+00
  0.5600E+00
  0.5257E+00
  0.4449E+00
  0.3616E+00
  0.2959E+00
  0.2495E+00
  0.2204E+00
  0.2071E+00
  0.1615E+01
  0.1615E+01
  0.1615E+01
  0.1615E+01
  0.1615E+01
  0.1615E+01
  0.1615E+01
  0.1614E+01
  0.1612E+01
  0.1606E+01
  0.1591E+01
  0.1563E+01
  0.1520E+01
  0.1465E+01
  0.1402E+01
  0.1337E+01
  0.1272E+01
  0.1207E+01
  0.1144E+01
  0.1082E+01
  0.1023E+01
  0.9662E+00
  0.9115E+00
  0.8594E+00
  0.8101E+00
  0.7639E+00
  0.7212E+00
  0.6819E+00
  0.6465E+00
  0.6182E+00
  0.6048E+00
  0.6162E+00
  0.6551E+00
  0.7139E+00
  0.7812E+00
  0.8497E+00
  0.9125E+00
  0.9371E+00
  0.9236E+00
  0.8611E+00
  0.7234E+00
  0.5965E+00
  0.5344E+00
  0.5271E+00
  0.5332E+00
  0.5448E+00
  0.5536E+00
  0.5562E+00
  0.5567E+00
  0.5590E+00
  0.5621E+00
  0.5587E+00
  0.5238E+00
  0.4433E+00
  0.3600E+00
  0.2946E+00
  0.2487E+00
  0.2201E+00
  0.2060E+00
  0.2013E+00
  0.1615E+01
  0.1615E+01
  0.1615E+01
  0.1615E+01
  0.1615E+01
  0.1615E+01
  0.1615E+01
  0.1614E+01
  0.1612E+01
  0.1606E+01
  0.1593E+01
  0.1566E+01
  0.1524E+01
  0.1471E+01
  0.1409E+01
  0.1344E+01
  0.1278E+01
  0.1212E+01
  0.1148E+01
  0.1085E+01
  0.1025E+01
  0.9671E+00
  0.9120E+00
  0.8597E+00
  0.8106E+00
  0.7648E+00
  0.7227E+00
  0.6852E+00
  0.6559E+00
  0.6444E+00
  0.6575E+00
  0.6964E+00
  0.7527E+00
  0.8142E+00
  0.8732E+00
  0.9275E+00
  0.9493E+00
  0.9362E+00
  0.8713E+00
  0.7308E+00
  0.5970E+00
  0.5281E+00
  0.5187E+00
  0.5252E+00
  0.5384E+00
  0.5501E+00
  0.5552E+00
  0.5568E+00
  0.5595E+00
  0.5622E+00
  0.5581E+00
  0.5217E+00
  0.4416E+00
  0.3587E+00
  0.2935E+00
  0.2479E+00
  0.2196E+00
  0.2057E+00
  0.2011E+00
  0.2002E+00
  0.1624E+01
  0.1624E+01
  0.1624E+01
  0.1624E+01
  0.1624E+01
  0.1624E+01
  0.1624E+01
  0.1624E+01
  0.1622E+01
  0.1617E+01
  0.1605E+01
  0.1582E+01
  0.1543E+01
  0.1490E+01
  0.1429E+01
  0.1363E+01
  0.1296E+01
  0.1228E+01
  0.1163E+01
  0.1099E+01
  0.1037E+01
  0.9771E+00
  0.9210E+00
  0.8685E+00
  0.8198E+00
  0.7750E+00
  0.7359E+00
  0.7073E+00
  0.6990E+00
  0.7123E+00
  0.7490E+00
  0.7999E+00
  0.8544E+00
  0.9045E+00
  0.9457E+00
  0.9586E+00
  0.9470E+00
  0.8864E+00
  0.7453E+00
  0.6039E+00
  0.5239E+00
  0.5105E+00
  0.5164E+00
  0.5304E+00
  0.5448E+00
  0.5529E+00
  0.5564E+00
  0.5599E+00
  0.5631E+00
  0.5592E+00
  0.5218E+00
  0.4401E+00
  0.3575E+00
  0.2928E+00
  0.2475E+00
  0.2193E+00
  0.2056E+00
  0.2011E+00
  0.2001E+00
  0.2000E+00
  0.1647E+01
  0.1647E+01
  0.1647E+01
  0.1647E+01
  0.1647E+01
  0.1647E+01
  0.1647E+01
  0.1647E+01
  0.1646E+01
  0.1642E+01
  0.1631E+01
  0.1610E+01
  0.1573E+01
  0.1521E+01
  0.1458E+01
  0.1390E+01
  0.1320E+01
  0.1250E+01
  0.1182E+01
  0.1117E+01
  0.1054E+01
  0.9938E+00
  0.9377E+00
  0.8858E+00
  0.8389E+00
  0.7996E+00
  0.7723E+00
  0.7653E+00
  0.7781E+00
  0.8101E+00
  0.8533E+00
  0.8984E+00
  0.9388E+00
  0.9666E+00
  0.9688E+00
  0.9564E+00
  0.8990E+00
  0.7649E+00
  0.6185E+00
  0.5243E+00
  0.5040E+00
  0.5082E+00
  0.5214E+00
  0.5382E+00
  0.5493E+00
  0.5550E+00
  0.5599E+00
  0.5636E+00
  0.5600E+00
  0.5241E+00
  0.4422E+00
  0.3576E+00
  0.2923E+00
  0.2473E+00
  0.2192E+00
  0.2056E+00
  0.2011E+00
  0.2001E+00
  0.2000E+00
  0.2000E+00
  0.1675E+01
  0.1675E+01
  0.1675E+01
  0.1675E+01
  0.1675E+01
  0.1675E+01
  0.1675E+01
  0.1674E+01
  0.1673E+01
  0.1670E+01
  0.1661E+01
  0.1641E+01
  0.1605E+01
  0.1553E+01
  0.1488E+01
  0.1418E+01
  0.1345E+01
  0.1273E+01
  0.1203E+01
  0.1135E+01
  0.1071E+01
  0.1012E+01
  0.9573E+00
  0.9089E+00
  0.8695E+00
  0.8431E+00
  0.8364E+00
  0.8475E+00
  0.8741E+00
  0.9088E+00
  0.9438E+00
  0.9720E+00
  0.9839E+00
  0.9781E+00
  0.9643E+00
  0.9095E+00
  0.7818E+00
  0.6377E+00
  0.5331E+00
  0.5002E+00
  0.5021E+00
  0.5129E+00
  0.5310E+00
  0.5449E+00
  0.5528E+00
  0.5590E+00
  0.5640E+00
  0.5608E+00
  0.5249E+00
  0.4428E+00
  0.3589E+00
  0.2930E+00
  0.2472E+00
  0.2193E+00
  0.2056E+00
  0.2011E+00
  0.2001E+00
  0.2000E+00
  0.2000E+00
  0.2000E+00
  0.1697E+01
  0.1697E+01
  0.1697E+01
  0.1697E+01