# vtk DataFile Version 3.0
vtk output
ASCII
DATASET RECTILINEAR_GRID
DIMENSIONS          61          61 1
X_COORDINATES    61 double
  0.0000E+00
  0.1667E+00
  0.3333E+00
  0.5000E+00
  0.6667E+00
  0.8333E+00
  0.1000E+01
  0.1167E+01
  0.1333E+01
  0.1500E+01
  0.1667E+01
  0.1833E+01
  0.2000E+01
  0.2167E+01
  0.2333E+01
  0.2500E+01
  0.2667E+01
  0.2833E+01
  0.3000E+01
  0.3167E+01
  0.3333E+01
  0.3500E+01
  0.3667E+01
  0.3833E+01
  0.4000E+01
  0.4167E+01
  0.4333E+01
  0.4500E+01
  0.4667E+01
  0.4833E+01
  0.5000E+01
  0.5167E+01
  0.5333E+01
  0.5500E+01
  0.5667E+01
  0.5833E+01
  0.6000E+01
  0.6167E+01
  0.6333E+01
  0.6500E+01
  0.6667E+01
  0.6833E+01
  0.7000E+01
  0.7167E+01
  0.7333E+01
  0.7500E+01
  0.7667E+01
  0.7833E+01
  0.8000E+01
  0.8167E+01
  0.8333E+01
  0.8500E+01
  0.8667E+01
  0.8833E+01
  0.9000E+01
  0.9167E+01
  0.9333E+01
  0.9500E+01
  0.9667E+01
  0.9833E+01
  0.1000E+02
Y_COORDINATES    61 double
  0.0000E+00
  0.1667E+00
  0.3333E+00
  0.5000E+00
  0.6667E+00
  0.8333E+00
  0.1000E+01
  0.1167E+01
  0.1333E+01
  0.1500E+01
  0.1667E+01
  0.1833E+01
  0.2000E+01
  0.2167E+01
  0.2333E+01
  0.2500E+01
  0.2667E+01
  0.2833E+01
  0.3000E+01
  0.3167E+01
  0.3333E+01
  0.3500E+01
  0.3667E+01
  0.3833E+01
  0.4000E+01
  0.4167E+01
  0.4333E+01
  0.4500E+01
  0.4667E+01
  0.4833E+01
  0.5000E+01
  0.5167E+01
  0.5333E+01
  0.5500E+01
  0.5667E+01
  0.5833E+01
  0.6000E+01
  0.6167E+01
  0.6333E+01
  0.6500E+01
  0.6667E+01
  0.6833E+01
  0.7000E+01
  0.7167E+01
  0.7333E+01
  0.7500E+01
  0.7667E+01
  0.7833E+01
  0.8000E+01
  0.8167E+01
  0.8333E+01
  0.8500E+01
  0.8667E+01
  0.8833E+01
  0.9000E+01
  0.9167E+01
  0.9333E+01
  0.9500E+01
  0.9667E+01
  0.9833E+01
  0.1000E+02
Z_COORDINATES 1 double
0
CELL_DATA                 3600
FIELD FieldData 4
density 1                 3600 double
  0.6801E+01
  0.6801E+01
  0.6801E+01
  0.6801E+01
  0.6801E+01
  0.6801E+01
  0.6801E+01
  0.6801E+01
  0.6801E+01
  0.6801E+01
  0.6801E+01
  0.6800E+01
  0.6796E+01
  0.6781E+01
  0.6736E+01
  0.6630E+01
  0.6442E+01
  0.6181E+01
  0.5881E+01
  0.5569E+01
  0.5262E+01
  0.4966E+01
  0.4684E+01
  0.4419E+01
  0.4170E+01
  0.3937E+01
  0.3718E+01
  0.3512E+01
  0.3317E+01
  0.3133E+01
  0.2959E+01
  0.2794E+01
  0.2636E+01
  0.2486E+01
  0.2341E+01
  0.2202E+01
  0.2071E+01
  0.1949E+01
  0.1839E+01
  0.1741E+01
  0.1661E+01
  0.1608E+01
  0.1584E+01
  0.1584E+01
  0.1588E+01
  0.1585E+01
  0.1554E+01
  0.1450E+01
  0.1273E+01
  0.1061E+01
  0.8680E+00
  0.7338E+00
  0.6699E+00
  0.6618E+00
  0.6699E+00
  0.6853E+00
  0.6476E+00
  0.4451E+00
  0.2740E+00
  0.2085E+00
  0.6715E+01
  0.6715E+01
  0.6715E+01
  0.6715E+01
  0.6715E+01
  0.6715E+01
  0.6715E+01
  0.6715E+01
  0.6715E+01
  0.6715E+01
  0.6715E+01
  0.6714E+01
  0.6711E+01
  0.6696E+01
  0.6651E+01
  0.6547E+01
  0.6362E+01
  0.6104E+01
  0.5806E+01
  0.5496E+01
  0.5190E+01
  0.4895E+01
  0.4614E+01
  0.4349E+01
  0.4100E+01
  0.3867E+01
  0.3648E+01
  0.3441E+01
  0.3246E+01
  0.3062E+01
  0.2887E+01
  0.2722E+01
  0.2565E+01
  0.2415E+01
  0.2271E+01
  0.2134E+01
  0.2005E+01
  0.1886E+01
  0.1778E+01
  0.1682E+01
  0.1605E+01
  0.1554E+01
  0.1531E+01
  0.1532E+01
  0.1537E+01
  0.1535E+01
  0.1506E+01
  0.1408E+01
  0.1243E+01
  0.1043E+01
  0.8588E+00
  0.7295E+00
  0.6672E+00
  0.6602E+00
  0.6686E+00
  0.6828E+00
  0.6399E+00
  0.4353E+00
  0.2702E+00
  0.2077E+00
  0.6539E+01
  0.6539E+01
  0.6539E+01
  0.6539E+01
  0.6539E+01
  0.6539E+01
  0.6539E+01
  0.6539E+01
  0.6539E+01
  0.6539E+01
  0.6539E+01
  0.6539E+01
  0.6535E+01
  0.6521E+01
  0.6479E+01
  0.6379E+01
  0.6200E+01
  0.5948E+01
  0.5655E+01
  0.5349E+01
  0.5046E+01
  0.4754E+01
  0.4475E+01
  0.4211E+01
  0.3964E+01
  0.3732E+01
  0.3514E+01
  0.3309E+01
  0.3115E+01
  0.2932E+01
  0.2759E+01
  0.2596E+01
  0.2441E+01
  0.2294E+01
  0.2153E+01
  0.2020E+01
  0.1895E+01
  0.1780E+01
  0.1676E+01
  0.1585E+01
  0.1512E+01
  0.1464E+01
  0.1441E+01
  0.1442E+01
  0.1448E+01
  0.1446E+01
  0.1421E+01
  0.1336E+01
  0.1192E+01
  0.1011E+01
  0.8416E+00
  0.7193E+00
  0.6614E+00
  0.6565E+00
  0.6653E+00
  0.6781E+00
  0.6279E+00
  0.4203E+00
  0.2636E+00
  0.2064E+00
  0.6281E+01
  0.6281E+01
  0.6281E+01
  0.6281E+01
  0.6281E+01
  0.6281E+01
  0.6281E+01
  0.6281E+01
  0.6281E+01
  0.6281E+01
  0.6281E+01
  0.6280E+01
  0.6277E+01
  0.6264E+01
  0.6225E+01
  0.6132E+01
  0.5961E+01
  0.5718E+01
  0.5434E+01
  0.5135E+01
  0.4839E+01
  0.4553E+01
  0.4279E+01
  0.4021E+01
  0.3778E+01
  0.3550E+01
  0.3336E+01
  0.3135E+01
  0.2946E+01
  0.2767E+01
  0.2599E+01
  0.2440E+01
  0.2291E+01
  0.2149E+01
  0.2014E+01
  0.1886E+01
  0.1767E+01
  0.1658E+01
  0.1560E+01
  0.1474E+01
  0.1405E+01
  0.1360E+01
  0.1336E+01
  0.1335E+01
  0.1341E+01
  0.1341E+01
  0.1322E+01
  0.1253E+01
  0.1132E+01
  0.9727E+00
  0.8180E+00
  0.7027E+00
  0.6523E+00
  0.6495E+00
  0.6626E+00
  0.6723E+00
  0.6090E+00
  0.3978E+00
  0.2542E+00
  0.2047E+00
  0.5964E+01
  0.5964E+01
  0.5964E+01
  0.5964E+01
  0.5964E+01
  0.5964E+01
  0.5964E+01
  0.5964E+01
  0.5964E+01
  0.5964E+01
  0.5964E+01
  0.5963E+01
  0.5961E+01
  0.5950E+01
  0.5914E+01
  0.5828E+01
  0.5669E+01
  0.5439E+01
  0.5166E+01
  0.4878E+01
  0.4592E+01
  0.4315E+01
  0.4050E+01
  0.3800E+01
  0.3565E+01
  0.3344E+01
  0.3138E+01
  0.2944E+01
  0.2761E+01
  0.2590E+01
  0.2428E+01
  0.2277E+01
  0.2134E+01
  0.1998E+01
  0.1870E+01
  0.1749E+01
  0.1637E+01
  0.1534E+01
  0.1442E+01
  0.1361E+01
  0.1296E+01
  0.1253E+01
  0.1227E+01
  0.1224E+01
  0.1231E+01
  0.1232E+01
  0.1224E+01
  0.1174E+01
  0.1072E+01
  0.9321E+00
  0.7893E+00
  0.6813E+00
  0.6400E+00
  0.6399E+00
  0.6595E+00
  0.6647E+00
  0.5802E+00
  0.3697E+00
  0.2432E+00
  0.2030E+00
  0.5622E+01
  0.5622E+01
  0.5622E+01
  0.5622E+01
  0.5622E+01
  0.5622E+01
  0.5622E+01
  0.5622E+01
  0.5622E+01
  0.5622E+01
  0.5622E+01
  0.5621E+01
  0.5619E+01
  0.5609E+01
  0.5578E+01
  0.5501E+01
  0.5354E+01
  0.5139E+01
  0.4880E+01
  0.4605E+01
  0.4331E+01
  0.4065E+01
  0.3811E+01
  0.3571E+01
  0.3346E+01
  0.3135E+01
  0.2937E+01
  0.2752E+01
  0.2578E+01
  0.2414E+01
  0.2261E+01
  0.2117E+01
  0.1981E+01
  0.1853E+01
  0.1731E+01
  0.1617E+01
  0.1511E+01
  0.1414E+01
  0.1328E+01
  0.1252E+01
  0.1191E+01
  0.1149E+01
  0.1122E+01
  0.1117E+01
  0.1124E+01
  0.1132E+01
  0.1131E+01
  0.1108E+01
  0.1021E+01
  0.8904E+00
  0.7557E+00
  0.6562E+00
  0.6272E+00
  0.6307E+00
  0.6541E+00
  0.6542E+00
  0.5410E+00
  0.3392E+00
  0.2317E+00
  0.2017E+00
  0.5279E+01
  0.5279E+01
  0.5279E+01
  0.5279E+01
  0.5279E+01
  0.5279E+01
  0.5279E+01
  0.5279E+01
  0.5279E+01
  0.5279E+01
  0.5279E+01
  0.5279E+01
  0.5277E+01
  0.5269E+01
  0.5242E+01
  0.5173E+01
  0.5040E+01
  0.4840E+01
  0.4596E+01
  0.4335E+01
  0.4074E+01
  0.3820E+01
  0.3577E+01
  0.3348E+01
  0.3134E+01
  0.2933E+01
  0.2744E+01
  0.2568E+01
  0.2403E+01
  0.2247E+01
  0.2102E+01
  0.1965E+01
  0.1837E+01
  0.1715E+01
  0.1601E+01
  0.1493E+01
  0.1393E+01
  0.1302E+01
  0.1220E+01
  0.1149E+01
  0.1091E+01
  0.1050E+01
  0.1022E+01
  0.1018E+01
  0.1026E+01
  0.1044E+01
  0.1055E+01
  0.1048E+01
  0.9799E+00
  0.8484E+00
  0.7184E+00
  0.6310E+00
  0.6143E+00
  0.6236E+00
  0.6482E+00
  0.6368E+00
  0.4922E+00
  0.3089E+00
  0.2212E+00
  0.2008E+00
  0.4950E+01
  0.4950E+01
  0.4950E+01
  0.4950E+01
  0.4950E+01
  0.4950E+01
  0.4950E+01
  0.4950E+01
  0.4950E+01
  0.4950E+01
  0.4950E+01
  0.4949E+01
  0.4948E+01
  0.4941E+01
  0.4918E+01
  0.4858E+01
  0.4737E+01
  0.4552E+01
  0.4323E+01
  0.4076E+01
  0.3828E+01
  0.3586E+01
  0.3355E+01
  0.3137E+01
  0.2933E+01
  0.2742E+01
  0.2563E+01
  0.2395E+01
  0.2238E+01
  0.2091E+01
  0.1953E+01
  0.1824E+01
  0.1702E+01
  0.1588E+01
  0.1479E+01
  0.1378E+01
  0.1284E+01
  0.1198E+01
  0.1121E+01
  0.1054E+01
  0.9992E+00
  0.9584E+00
  0.9322E+00
  0.9299E+00
  0.9423E+00
  0.9742E+00
  0.1004E+01
  0.1002E+01
  0.9370E+00
  0.8046E+00
  0.6795E+00
  0.6085E+00
  0.6020E+00
  0.6182E+00
  0.6417E+00
  0.6108E+00
  0.4353E+00
  0.2803E+00
  0.2125E+00
  0.2003E+00
  0.4637E+01
  0.4637E+01
  0.4637E+01
  0.4637E+01
  0.4637E+01
  0.4637E+01
  0.4637E+01
  0.4637E+01
  0.4637E+01
  0.4637E+01
  0.4637E+01
  0.4637E+01
  0.4636E+01
  0.4630E+01
  0.4611E+01
  0.4558E+01
  0.4450E+01
  0.4280E+01
  0.4066E+01
  0.3832E+01
  0.3596E+01
  0.3367E+01
  0.3147E+01
  0.2939E+01
  0.2745E+01
  0.2563E+01
  0.2393E+01
  0.2234E+01
  0.2085E+01
  0.1945E+01
  0.1815E+01
  0.1693E+01
  0.1578E+01
  0.1469E+01
  0.1367E+01
  0.1271E+01
  0.1182E+01
  0.1101E+01
  0.1029E+01
  0.9655E+00
  0.9140E+00
  0.8723E+00
  0.8529E+00
  0.8542E+00
  0.8749E+00
  0.9310E+00
  0.9754E+00
  0.9689E+00
  0.8879E+00
  0.7535E+00
  0.6387E+00
  0.5910E+00
  0.5918E+00
  0.6172E+00
  0.6308E+00
  0.5658E+00
  0.3813E+00
  0.2549E+00
  0.2064E+00
  0.2001E+00
  0.4342E+01
  0.4342E+01
  0.4342E+01
  0.4342E+01
  0.4342E+01
  0.4342E+01
  0.4342E+01
  0.4342E+01
  0.4342E+01
  0.4342E+01
  0.4342E+01
  0.4342E+01
  0.4341E+01
  0.4337E+01
  0.4320E+01
  0.4275E+01
  0.4179E+01
  0.4023E+01
  0.3823E+01
  0.3603E+01
  0.3379E+01
  0.3160E+01
  0.2951E+01
  0.2753E+01
  0.2568E+01
  0.2395E+01
  0.2234E+01
  0.2083E+01
  0.1941E+01
  0.1809E+01
  0.1686E+01
  0.1570E+01
  0.1461E+01
  0.1359E+01
  0.1262E+01
  0.1172E+01
  0.1088E+01
  0.1012E+01
  0.9441E+00
  0.8842E+00
  0.8350E+00
  0.7944E+00
  0.7855E+00
  0.7915E+00
  0.8342E+00
  0.9193E+00
  0.9574E+00
  0.9358E+00
  0.8273E+00
  0.6955E+00
  0.6006E+00
  0.5781E+00
  0.5872E+00
  0.6169E+00
  0.6144E+00
  0.5040E+00
  0.3309E+00
  0.2337E+00
  0.2028E+00
  0.2000E+00
  0.4064E+01
  0.4064E+01
  0.4064E+01
  0.4064E+01
  0.4064E+01
  0.4064E+01
  0.4064E+01
  0.4064E+01
  0.4064E+01
  0.4064E+01
  0.4064E+01
  0.4064E+01
  0.4063E+01
  0.4059E+01
  0.4046E+01
  0.4007E+01
  0.3922E+01
  0.3781E+01
  0.3594E+01
  0.3386E+01
  0.3174E+01
  0.2966E+01
  0.2767E+01
  0.2579E+01
  0.2403E+01
  0.2238E+01
  0.2085E+01
  0.1941E+01
  0.1807E+01
  0.1682E+01
  0.1565E+01
  0.1456E+01
  0.1353E+01
  0.1256E+01
  0.1165E+01
  0.1080E+01
  0.1001E+01
  0.9299E+00
  0.8656E+00
  0.8094E+00
  0.7607E+00
  0.7302E+00
  0.7293E+00
  0.7530E+00
  0.8355E+00
  0.9291E+00
  0.9412E+00
  0.8862E+00
  0.7583E+00
  0.6367E+00
  0.5715E+00
  0.5673E+00
  0.5881E+00
  0.6136E+00
  0.5847E+00
  0.4302E+00
  0.2883E+00
  0.2180E+00
  0.2010E+00
  0.2000E+00
  0.3801E+01
  0.3801E+01
  0.3801E+01
  0.3801E+01
  0.3801E+01
  0.3801E+01
  0.3801E+01
  0.3801E+01
  0.3801E+01
  0.3801E+01
  0.3801E+01
  0.3801E+01
  0.3801E+01
  0.3798E+01
  0.3786E+01
  0.3753E+01
  0.3679E+01
  0.3551E+01
  0.3378E+01
  0.3182E+01
  0.2981E+01
  0.2783E+01
  0.2594E+01
  0.2415E+01
  0.2247E+01
  0.2091E+01
  0.1945E+01
  0.1809E+01
  0.1682E+01
  0.1564E+01
  0.1453E+01
  0.1349E+01
  0.1252E+01
  0.1161E+01
  0.1075E+01
  0.9945E+00
  0.9208E+00
  0.8538E+00
  0.7932E+00
  0.7396E+00
  0.6923E+00
  0.6821E+00
  0.6930E+00
  0.7565E+00
  0.8671E+00
  0.9283E+00
  0.9144E+00
  0.8161E+00
  0.6832E+00
  0.5823E+00
  0.5534E+00
  0.5619E+00
  0.5939E+00
  0.6000E+00
  0.5271E+00
  0.3638E+00
  0.2542E+00
  0.2080E+00
  0.2003E+00
  0.2000E+00
  0.3554E+01
  0.3554E+01
  0.3554E+01
  0.3554E+01
  0.3554E+01
  0.3554E+01
  0.3554E+01
  0.3554E+01
  0.3554E+01
  0.3554E+01
  0.3554E+01
  0.3554E+01
  0.3553E+01
  0.3551E+01
  0.3542E+01
  0.3514E+01
  0.3449E+01
  0.3334E+01
  0.3174E+01
  0.2990E+01
  0.2800E+01
  0.2612E+01
  0.2432E+01
  0.2261E+01
  0.2102E+01
  0.1953E+01
  0.1815E+01
  0.1686E+01
  0.1565E+01
  0.1453E+01
  0.1348E+01
  0.1250E+01
  0.1159E+01
  0.1072E+01
  0.9910E+00
  0.9156E+00
  0.8464E+00
  0.7830E+00
  0.7258E+00
  0.6709E+00
  0.6447E+00
  0.6509E+00
  0.6967E+00
  0.7966E+00
  0.8992E+00
  0.9115E+00
  0.8566E+00
  0.7281E+00
  0.6073E+00
  0.5450E+00
  0.5425E+00
  0.5659E+00
  0.5931E+00
  0.5736E+00
  0.4463E+00
  0.3073E+00
  0.2288E+00
  0.2029E+00
  0.2001E+00
  0.2000E+00
  0.3321E+01
  0.3321E+01
  0.3321E+01
  0.3321E+01
  0.3321E+01
  0.3321E+01
  0.3321E+01
  0.3321E+01
  0.3321E+01
  0.3321E+01
  0.3321E+01
  0.3321E+01
  0.3320E+01
  0.3318E+01
  0.3311E+01
  0.3288E+01
  0.3232E+01
  0.3129E+01
  0.2982E+01
  0.2809E+01
  0.2629E+01
  0.2451E+01
  0.2279E+01
  0.2117E+01
  0.1965E+01
  0.1824E+01
  0.1692E+01
  0.1570E+01
  0.1456E+01
  0.1349E+01
  0.1250E+01
  0.1158E+01
  0.1071E+01
  0.9894E+00
  0.9129E+00
  0.8421E+00
  0.7767E+00
  0.7169E+00
  0.6589E+00
  0.6184E+00
  0.6194E+00
  0.6552E+00
  0.7402E+00
  0.8564E+00
  0.8993E+00
  0.8720E+00
  0.7595E+00
  0.6318E+00
  0.5453E+00
  0.5269E+00
  0.5407E+00
  0.5743E+00
  0.5790E+00
  0.5121E+00
  0.3679E+00
  0.2638E+00
  0.2127E+00
  0.2008E+00
  0.2000E+00
  0.2000E+00
  0.3101E+01
  0.3101E+01
  0.3101E+01
  0.3101E+01
  0.3101E+01
  0.3101E+01
  0.3101E+01
  0.3101E+01
  0.3101E+01
  0.3101E+01
  0.3101E+01
  0.3101E+01
  0.3100E+01
  0.3099E+01
  0.3093E+01
  0.3074E+01
  0.3026E+01
  0.2934E+01
  0.2800E+01
  0.2638E+01
  0.2468E+01
  0.2299E+01
  0.2135E+01
  0.1981E+01
  0.1837E+01
  0.1702E+01
  0.1577E+01
  0.1461E+01
  0.1353E+01
  0.1252E+01
  0.1159E+01
  0.1071E+01
  0.9890E+00
  0.9119E+00
  0.8400E+00
  0.7729E+00
  0.7113E+00
  0.6519E+00
  0.6015E+00
  0.5976E+00
  0.6241E+00
  0.6967E+00
  0.8137E+00
  0.8804E+00
  0.8688E+00
  0.7776E+00
  0.6470E+00
  0.5487E+00
  0.5141E+00
  0.5216E+00
  0.5537E+00
  0.5739E+00
  0.5456E+00
  0.4246E+00
  0.3057E+00
  0.2327E+00
  0.2045E+00
  0.2002E+00
  0.2000E+00
  0.2000E+00
  0.2892E+01
  0.2892E+01
  0.2892E+01
  0.2892E+01
  0.2892E+01
  0.2892E+01
  0.2892E+01
  0.2892E+01
  0.2892E+01
  0.2892E+01
  0.2892E+01
  0.2892E+01
  0.2892E+01
  0.2891E+01
  0.2886E+01
  0.2871E+01
  0.2830E+01
  0.2749E+01
  0.2627E+01
  0.2476E+01
  0.2315E+01
  0.2155E+01
  0.1999E+01
  0.1853E+01
  0.1715E+01
  0.1587E+01
  0.1469E+01
  0.1359E+01
  0.1256E+01
  0.1161E+01
  0.1072E+01
  0.9894E+00
  0.9119E+00
  0.8393E+00
  0.7711E+00
  0.7083E+00
  0.6472E+00
  0.5907E+00
  0.5836E+00
  0.6023E+00
  0.6637E+00
  0.7724E+00
  0.8609E+00
  0.8629E+00
  0.7873E+00
  0.6545E+00
  0.5510E+00
  0.5071E+00
  0.5097E+00
  0.5345E+00
  0.5601E+00
  0.5536E+00
  0.4712E+00
  0.3475E+00
  0.2596E+00
  0.2136E+00
  0.2012E+00
  0.2000E+00
  0.2000E+00
  0.2000E+00
  0.2694E+01
  0.2694E+01
  0.2694E+01
  0.2694E+01
  0.2694E+01
  0.2694E+01
  0.2694E+01
  0.2694E+01
  0.2694E+01
  0.2694E+01
  0.2694E+01
  0.2694E+01
  0.2694E+01
  0.2693E+01
  0.2690E+01
  0.2677E+01
  0.2643E+01
  0.2572E+01
  0.2461E+01
  0.2322E+01
  0.2170E+01
  0.2018E+01
  0.1871E+01
  0.1731E+01
  0.1600E+01
  0.1479E+01
  0.1366E+01
  0.1262E+01
  0.1165E+01
  0.1075E+01
  0.9909E+00
  0.9129E+00
  0.8399E+00
  0.7711E+00
  0.7073E+00
  0.6446E+00
  0.5846E+00
  0.5753E+00
  0.5873E+00
  0.6422E+00
  0.7447E+00
  0.8445E+00
  0.8545E+00
  0.7921E+00
  0.6607E+00
  0.5529E+00
  0.5042E+00
  0.5033E+00
  0.5205E+00
  0.5486E+00
  0.5504E+00
  0.4954E+00
  0.3821E+00
  0.2877E+00
  0.2282E+00
  0.2044E+00
  0.2002E+00
  0.2000E+00
  0.2000E+00
  0.2000E+00
  0.2508E+01
  0.2508E+01
  0.2508E+01
  0.2508E+01
  0.2508E+01
  0.2508E+01
  0.2508E+01
  0.2508E+01
  0.2508E+01
  0.2508E+01
  0.2508E+01
  0.2508E+01
  0.2508E+01
  0.2507E+01
  0.2504E+01
  0.2494E+01
  0.2466E+01
  0.2404E+01
  0.2304E+01
  0.2175E+01
  0.2033E+01
  0.1889E+01
  0.1750E+01
  0.1617E+01
  0.1493E+01
  0.1377E+01
  0.1271E+01
  0.1171E+01
  0.1080E+01
  0.9944E+00
  0.9155E+00
  0.8421E+00
  0.7729E+00
  0.7083E+00
  0.6448E+00
  0.5838E+00
  0.5706E+00
  0.5798E+00
  0.6244E+00
  0.7206E+00
  0.8352E+00
  0.8522E+00
  0.8009E+00
  0.6682E+00
  0.5573E+00
  0.5059E+00
  0.5015E+00
  0.5129E+00
  0.5401E+00
  0.5460E+00
  0.5068E+00
  0.4064E+00
  0.3119E+00
  0.2454E+00
  0.2105E+00
  0.2010E+00
  0.2000E+00
  0.2000E+00
  0.2000E+00
  0.2000E+00
  0.2334E+01
  0.2334E+01
  0.2334E+01
  0.2334E+01
  0.2334E+01
  0.2334E+01
  0.2334E+01
  0.2334E+01
  0.2334E+01
  0.2334E+01
  0.2334E+01
  0.2334E+01
  0.2333E+01
  0.2333E+01
  0.2331E+01
  0.2323E+01
  0.2299E+01
  0.2246E+01
  0.2157E+01
  0.2038E+01
  0.1905E+01
  0.1769E+01
  0.1637E+01
  0.1511E+01
  0.1393E+01
  0.1283E+01
  0.1182E+01
  0.1088E+01
  0.1001E+01
  0.9208E+00
  0.8463E+00
  0.7766E+00
  0.7115E+00
  0.6468E+00
  0.5854E+00
  0.5698E+00
  0.5770E+00
  0.6147E+00
  0.7016E+00
  0.8202E+00
  0.8539E+00
  0.8171E+00
  0.6872E+00
  0.5680E+00
  0.5129E+00
  0.5045E+00
  0.5132E+00
  0.5366E+00
  0.5421E+00
  0.5111E+00
  0.4216E+00
  0.3302E+00
  0.2612E+00
  0.2190E+00
  0.2029E+00
  0.2002E+00
  0.2000E+00
  0.2000E+00
  0.2000E+00
  0.2000E+00
  0.2173E+01
  0.2173E+01
  0.2173E+01
  0.2173E+01
  0.2173E+01
  0.2173E+01
  0.2173E+01
  0.2173E+01
  0.2173E+01
  0.2173E+01
  0.2173E+01
  0.2173E+01
  0.2173E+01
  0.2173E+01
  0.2171E+01
  0.2165E+01
  0.2146E+01
  0.2101E+01
  0.2021E+01
  0.1912E+01
  0.1788E+01
  0.1660E+01
  0.1534E+01
  0.1414E+01
  0.1302E+01
  0.1198E+01
  0.1101E+01
  0.1012E+01
  0.9299E+00
  0.8537E+00
  0.7830E+00
  0.7170E+00
  0.6511E+00
  0.5913E+00
  0.5725E+00
  0.5803E+00
  0.6150E+00
  0.6895E+00
  0.8058E+00
  0.8536E+00
  0.8279E+00
  0.7089E+00
  0.5848E+00
  0.5237E+00
  0.5127E+00
  0.5194E+00
  0.5384E+00
  0.5410E+00
  0.5127E+00
  0.4285E+00
  0.3417E+00
  0.2736E+00
  0.2277E+00
  0.2060E+00
  0.2006E+00
  0.2000E+00
  0.2000E+00
  0.2000E+00
  0.2000E+00
  0.2000E+00
  0.2028E+01
  0.2028E+01
  0.2028E+01
  0.2028E+01
  0.2028E+01
  0.2028E+01
  0.2028E+01
  0.2028E+01
  0.2028E+01
  0.2028E+01
  0.2028E+01
  0.2028E+01
  0.2028E+01
  0.2028E+01
  0.2027E+01
  0.2022E+01
  0.2006E+01
  0.1968E+01
  0.1898E+01
  0.1799E+01
  0.1682E+01
  0.1561E+01
  0.1442E+01
  0.1327E+01
  0.1220E+01
  0.1121E+01
  0.1029E+01
  0.9440E+00
  0.8655E+00
  0.7931E+00
  0.7257E+00
  0.6592E+00
  0.6025E+00
  0.5813E+00
  0.5886E+00
  0.6249E+00
  0.7039E+00
  0.8079E+00
  0.8537E+00
  0.8338E+00
  0.7257E+00
  0.5995E+00
  0.5347E+00
  0.5228E+00
  0.5279E+00
  0.5431E+00
  0.5438E+00
  0.5154E+00
  0.4325E+00
  0.3475E+00
  0.2816E+00
  0.2351E+00
  0.2095E+00
  0.2013E+00
  0.2001E+00
  0.2000E+00
  0.2000E+00
  0.2000E+00
  0.2000E+00
  0.2000E+00
  0.1900E+01
  0.1900E+01
  0.1900E+01
  0.1900E+01
  0.1900E+01
  0.1900E+01
  0.1900E+01
  0.1900E+01
  0.1900E+01
  0.1900E+01
  0.1900E+01
  0.1900E+01
  0.1900E+01
  0.1900E+01
  0.1899E+01
  0.1895E+01
  0.1883E+01
  0.1851E+01
  0.1789E+01
  0.1699E+01
  0.1590E+01
  0.1475E+01
  0.1361E+01
  0.1252E+01
  0.1149E+01
  0.1054E+01
  0.9654E+00
  0.8841E+00
  0.8094E+00
  0.7394E+00
  0.6709E+00
  0.6189E+00
  0.5964E+00
  0.6046E+00
  0.6414E+00
  0.7192E+00
  0.8213E+00
  0.8551E+00
  0.8343E+00
  0.7305E+00
  0.6092E+00
  0.5438E+00
  0.5319E+00
  0.5363E+00
  0.5487E+00
  0.5480E+00
  0.5181E+00
  0.4353E+00
  0.3510E+00
  0.2859E+00
  0.2402E+00
  0.2129E+00
  0.2023E+00
  0.2002E+00
  0.2000E+00
  0.2000E+00
  0.2000E+00
  0.2000E+00
  0.2000E+00
  0.2000E+00
  0.1795E+01
  0.1795E+01
  0.1795E+01
  0.1795E+01
  0.1795E+01
  0.1795E+01
  0.1795E+01
  0.1795E+01
  0.1795E+01
  0.1795E+01
  0.1795E+01
  0.1795E+01
  0.1795E+01
  0.1794E+01
  0.1794E+01
  0.1791E+01
  0.1781E+01
  0.1754E+01
  0.1701E+01
  0.1618E+01
  0.1515E+01
  0.1406E+01
  0.1296E+01
  0.1191E+01
  0.1091E+01
  0.9991E+00
  0.9139E+00
  0.8350E+00
  0.7607E+00
  0.6923E+00
  0.6444E+00
  0.6186E+00
  0.6259E+00
  0.6642E+00
  0.7441E+00
  0.8309E+00
  0.8507E+00
  0.8265E+00
  0.7231E+00
  0.6081E+00
  0.5479E+00
  0.5390E+00
  0.5435E+00
  0.5539E+00
  0.5522E+00
  0.5201E+00
  0.4361E+00
  0.3520E+00
  0.2881E+00
  0.2430E+00
  0.2154E+00
  0.2034E+00
  0.2004E+00
  0.2000E+00
  0.2000E+00
  0.2000E+00
  0.2000E+00
  0.2000E+00
  0.2000E+00
  0.2000E+00
  0.1720E+01
  0.1720E+01
  0.1720E+01
  0.1720E+01
  0.1720E+01
  0.1720E+01
  0.1720E+01
  0.1720E+01
  0.1720E+01
  0.1720E+01
  0.1720E+01
  0.1720E+01
  0.1720E+01
  0.1720E+01
  0.1719E+01
  0.1717E+01
  0.1709E+01
  0.1687E+01
  0.1640E+01
  0.1564E+01
  0.1466E+01
  0.1360E+01
  0.1253E+01
  0.1149E+01
  0.1050E+01
  0.9584E+00
  0.8723E+00
  0.7945E+00
  0.7298E+00
  0.6813E+00
  0.6491E+00
  0.6561E+00
  0.6964E+00
  0.7739E+00
  0.8446E+00
  0.8503E+00
  0.8144E+00
  0.7051E+00
  0.5984E+00
  0.5442E+00
  0.5403E+00
  0.5469E+00
  0.5582E+00
  0.5560E+00
  0.5213E+00
  0.4362E+00
  0.3520E+00
  0.2883E+00
  0.2442E+00
  0.2168E+00
  0.2042E+00
  0.2006E+00
  0.2000E+00
  0.2000E+00
  0.2000E+00
  0.2000E+00
  0.2000E+00
  0.2000E+00
  0.2000E+00
  0.2000E+00
  0.1681E+01
  0.1681E+01
  0.1681E+01
  0.1681E+01
  0.1681E+01
  0.1681E+01
  0.1681E+01
  0.1681E+01
  0.1681E+01
  0.1681E+01
  0.1681E+01
  0.1681E+01
  0.1681E+01
  0.1681E+01
  0.1681E+01
  0.1679E+01
  0.1672E+01
  0.1653E+01
  0.1610E+01
  0.1538E+01
  0.1443E+01
  0.1336E+01
  0.1227E+01
  0.1122E+01
  0.1022E+01
  0.9323E+00
  0.8532E+00
  0.7855E+00
  0.7291E+00
  0.6929E+00
  0.6981E+00
  0.7388E+00
  0.8120E+00
  0.8621E+00
  0.8549E+00
  0.8016E+00
  0.6867E+00
  0.5852E+00
  0.5357E+00
  0.5334E+00
  0.5433E+00
  0.5589E+00
  0.5582E+00
  0.5230E+00
  0.4363E+00
  0.3518E+00
  0.2882E+00
  0.2444E+00
  0.2175E+00
  0.2046E+00
  0.2007E+00
  0.2001E+00
  0.2000E+00
  0.2000E+00
  0.2000E+00
  0.2000E+00
  0.2000E+00
  0.2000E+00
  0.2000E+00
  0.2000E+00
  0.1668E+01
  0.1668E+01
  0.1668E+01
  0.1668E+01
  0.1668E+01
  0.1668E+01
  0.1668E+01
  0.1668E+01
  0.1668E+01
  0.1668E+01
  0.1668E+01
  0.1668E+01
  0.1668E+01
  0.1668E+01
  0.1667E+01
  0.1666E+01
  0.1661E+01
  0.1645E+01
  0.1607E+01
  0.1538E+01
  0.1444E+01
  0.1335E+01
  0.1224E+01
  0.1117E+01
  0.1018E+01
  0.9301E+00
  0.8543E+00
  0.7916E+00
  0.7526E+00
  0.7568E+00
  0.7955E+00
  0.8570E+00
  0.8827E+00
  0.8639E+00
  0.7918E+00
  0.6716E+00
  0.5692E+00
  0.5248E+00
  0.5238E+00
  0.5358E+00
  0.5547E+00
  0.5570E+00
  0.5245E+00
  0.4366E+00
  0.3517E+00
  0.2882E+00
  0.2443E+00
  0.2175E+00
  0.2048E+00
  0.2008E+00
  0.2001E+00
  0.2000E+00
  0.2000E+00
  0.2000E+00
  0.2000E+00
  0.2000E+00
  0.2000E+00
  0.2000E+00
  0.2000E+00
  0.2000E+00
  0.1666E+01
  0.1666E+01
  0.1666E+01
  0.1666E+01
  0.1666E+01
  0.1666E+01
  0.1666E+01
  0.1666E+01
  0.1666E+01
  0.1666E+01
  0.1666E+01
  0.1666E+01
  0.1666E+01
  0.1666E+01
  0.1666E+01
  0.1665E+01
  0.1660E+01
  0.1645E+01
  0.1609E+01
  0.1543E+01
  0.1450E+01
  0.1341E+01
  0.1231E+01
  0.1124E+01
  0.1027E+01
  0.9427E+00
  0.8753E+00
  0.8342E+00
  0.8356E+00
  0.8659E+00
  0.8988E+00
  0.8966E+00
  0.8722E+00
  0.7854E+00
  0.6624E+00
  0.5595E+00
  0.5129E+00
  0.5128E+00
  0.5269E+00
  0.5489E+00
  0.5533E+00
  0.5221E+00
  0.4369E+00
  0.3522E+00
  0.2879E+00
  0.2441E+00
  0.2174E+00
  0.2049E+00
  0.2009E+00
  0.2001E+00
  0.2000E+00
  0.2000E+00
  0.2000E+00
  0.2000E+00
  0.2000E+00
  0.2000E+00
  0.2000E+00
  0.2000E+00
  0.2000E+00
  0.2000E+00
  0.1664E+01
  0.1664E+01
  0.1664E+01
  0.1664E+01
  0.1664E+01
  0.1664E+01
  0.1664E+01
  0.1664E+01
  0.1664E+01
  0.1664E+01
  0.1664E+01
  0.1664E+01
  0.1664E+01
  0.1664E+01
  0.1664E+01
  0.1662E+01
  0.1658E+01
  0.1643E+01
  0.1607E+01
  0.1541E+01
  0.1448E+01
  0.1341E+01
  0.1232E+01
  0.1132E+01
  0.1044E+01
  0.9748E+00
  0.9312E+00
  0.9192E+00
  0.9276E+00
  0.9266E+00
  0.9123E+00
  0.8722E+00
  0.7771E+00
  0.6554E+00
  0.5538E+00
  0.5060E+00
  0.5050E+00
  0.5178E+00
  0.5422E+00
  0.5488E+00
  0.5198E+00
  0.4360E+00
  0.3516E+00
  0.2882E+00
  0.2441E+00
  0.2173E+00
  0.2048E+00
  0.2009E+00
  0.2001E+00
  0.2000E+00
  0.2000E+00
  0.2000E+00
  0.2000E+00
  0.2000E+00
  0.2000E+00
  0.2000E+00
  0.2000E+00
  0.2000E+00
  0.2000E+00
  0.2000E+00
  0.1642E+01
  0.1642E+01
  0.1642E+01
  0.1642E+01
  0.1642E+01
  0.1642E+01
  0.1642E+01
  0.1642E+01
  0.1642E+01
  0.1642E+01
  0.1642E+01
  0.1642E+01
  0.1642E+01
  0.1642E+01
  0.1641E+01
  0.1639E+01
  0.1634E+01
  0.1617E+01
  0.1579E+01
  0.1513E+01
  0.1423E+01
  0.1323E+01
  0.1224E+01
  0.1131E+01
  0.1055E+01
  0.1004E+01
  0.9752E+00
  0.9556E+00
  0.9401E+00
  0.9141E+00
  0.8565E+00
  0.7605E+00
  0.6472E+00
  0.5516E+00
  0.5043E+00
  0.5019E+00
  0.5125E+00
  0.5369E+00
  0.5441E+00
  0.5171E+00
  0.4356E+00
  0.3521E+00
  0.2882E+00
  0.2443E+00
  0.2174E+00
  0.2048E+00
  0.2009E+00
  0.2001E+00
  0.2000E+00
  0.2000E+00
  0.2000E+00
  0.2000E+00
  0.2000E+00
  0.2000E+00
  0.2000E+00
  0.2000E+00
  0.2000E+00
  0.2000E+00
  0.2000E+00
  0.2000E+00
  0.1549E+01
  0.1549E+01
  0.1549E+01
  0.1549E+01
  0.1549E+01
  0.1549E+01
  0.1549E+01
  0.1549E+01
  0.1549E+01
  0.1549E+01
  0.1549E+01
  0.1549E+01
  0.1549E+01
  0.1549E+01
  0.1548E+01
  0.1546E+01
  0.1538E+01
  0.1519E+01
  0.1480E+01
  0.1419E+01
  0.1340E+01
  0.1254E+01
  0.1175E+01
  0.1108E+01
  0.1048E+01
  0.1002E+01
  0.9682E+00
  0.9342E+00
  0.8851E+00
  0.8158E+00
  0.7289E+00
  0.6320E+00
  0.5497E+00
  0.5078E+00
  0.5029E+00
  0.5139E+00
  0.5367E+00
  0.5412E+00
  0.5146E+00
  0.4345E+00
  0.3518E+00
  0.2883E+00
  0.2444E+00
  0.2175E+00
  0.2049E+00
  0.2009E+00
  0.2001E+00
  0.2000E+00
  0.2000E+00
  0.2000E+00
  0.2000E+00
  0.2000E+00
  0.2000E+00
  0.2000E+00
  0.2000E+00
  0.2000E+00
  0.2000E+00
  0.2000E+00
  0.2000E+00
  0.2000E+00
  0.1383E+01
  0.1383E+01
  0.1383E+01
  0.1383E+01
  0.1383E+01
  0.1383E+01
  0.1383E+01
  0.1383E+01
  0.1383E+01
  0.1383E+01
  0.1383E+01
  0.1383E+01
  0.1383E+01
  0.1382E+01
  0.1381E+01
  0.1377E+01
  0.1367E+01
  0.1346E+01
  0.1310E+01
  0.1259E+01
  0.1197E+01
  0.1133E+01
  0.1073E+01
  0.1022E+01
  0.9804E+00
  0.9367E+00
  0.8868E+00
  0.8261E+00
  0.7576E+00
  0.6834E+00
  0.6079E+00
  0.5453E+00
  0.5163E+00
  0.5093E+00
  0.5210E+00
  0.5419E+00
  0.5426E+00
  0.5138E+00
  0.4321E+00
  0.3507E+00
  0.2881E+00
  0.2443E+00
  0.2175E+00
  0.2049E+00
  0.2009E+00
  0.2001E+00
  0.2000E+00
  0.2000E+00
  0.2000E+00
  0.2000E+00
  0.2000E+00
  0.2000E+00
  0.2000E+00
  0.2000E+00
  0.2000E+00
  0.2000E+00
  0.2000E+00
  0.2000E+00
  0.2000E+00
  0.2000E+00
  0.1172E+01
  0.1172E+01
  0.1172E+01
  0.1172E+01
  0.1172E+01
  0.1172E+01
  0.1172E+01
  0.1172E+01
  0.1172E+01
  0.1172E+01
  0.1172E+01
  0.1172E+01
  0.1172E+01
  0.1172E+01
  0.1169E+01
  0.1164E+01
  0.1152E+01
  0.1132E+01
  0.1101E+01
  0.1063E+01
  0.1019E+01
  0.9755E+00
  0.9330E+00
  0.8908E+00
  0.8486E+00
  0.8043E+00
  0.7525E+00
  0.6943E+00
  0.6357E+00
  0.5820E+00
  0.5447E+00
  0.5282E+00
  0.5223E+00
  0.5333E+00
  0.5498E+00
  0.5467E+00
  0.5136E+00
  0.4300E+00
  0.3476E+00
  0.2860E+00
  0.2431E+00
  0.2169E+00
  0.2047E+00
  0.2008E+00
  0.2001E+00
  0.2000E+00
  0.2000E+00
  0.2000E+00
  0.2000E+00
  0.2000E+00
  0.2000E+00
  0.2000E+00
  0.2000E+00
  0.2000E+00
  0.2000E+00
  0.2000E+00
  0.2000E+00
  0.2000E+00
  0.2000E+00
  0.2000E+00
  0.9735E+00
  0.9735E+00
  0.9735E+00
  0.9735E+00
  0.9735E+00
  0.9735E+00
  0.9735E+00
  0.9735E+00
  0.9735E+00
  0.9735E+00
  0.9735E+00
  0.9734E+00
  0.9732E+00
  0.9722E+00
  0.9695E+00
  0.9630E+00
  0.9508E+00
  0.9322E+00
  0.9083E+00
  0.8811E+00
  0.8522E+00
  0.8222E+00
  0.7906E+00
  0.7561E+00
  0.7184E+00
  0.6792E+00
  0.6379E+00
  0.5998E+00
  0.5704E+00
  0.5531E+00
  0.5417E+00
  0.5420E+00
  0.5521E+00
  0.5606E+00
  0.5510E+00
  0.5075E+00
  0.4231E+00
  0.3422E+00
  0.2816E+00
  0.2402E+00
  0.2154E+00
  0.2042E+00
  0.2007E+00
  0.2001E+00
  0.2000E+00
  0.2000E+00
  0.2000E+00
  0.2000E+00
  0.2000E+00
  0.2000E+00
  0.2000E+00
  0.2000E+00
  0.2000E+00
  0.2000E+00
  0.2000E+00
  0.2000E+00
  0.2000E+00
  0.2000E+00
  0.2000E+00
  0.2000E+00
  0.8306E+00
  0.8306E+00
  0.8306E+00
  0.8306E+00
  0.8306E+00
  0.8306E+00
  0.8306E+00
  0.8306E+00
  0.8306E+00
  0.8306E+00
  0.8306E+00
  0.8305E+00
  0.8302E+00
  0.8290E+00
  0.8258E+00
  0.8188E+00
  0.8069E+00
  0.7909E+00
  0.7725E+00
  0.7528E+00
  0.7314E+00
  0.7080E+00
  0.6831E+00
  0.6567E+00
  0.6311E+00
  0.6084E+00
  0.5905E+00
  0.5775E+00
  0.5665E+00
  0.5610E+00
  0.5660E+00
  0.5751E+00
  0.5729E+00
  0.5534E+00
  0.4923E+00
  0.4064E+00
  0.3301E+00
  0.2734E+00
  0.2349E+00
  0.2128E+00
  0.2033E+00
  0.2006E+00
  0.2001E+00
  0.2000E+00
  0.2000E+00
  0.2000E+00
  0.2000E+00
  0.2000E+00
  0.2000E+00
  0.2000E+00
  0.2000E+00
  0.2000E+00
  0.2000E+00
  0.2000E+00
  0.2000E+00
  0.2000E+00
  0.2000E+00
  0.2000E+00
  0.2000E+00
  0.2000E+00
  0.7580E+00
  0.7580E+00
  0.7580E+00
  0.7580E+00
  0.7580E+00
  0.7580E+00
  0.7580E+00
  0.7580E+00
  0.7580E+00
  0.7580E+00
  0.7579E+00
  0.7578E+00
  0.7574E+00
  0.7561E+00
  0.7525E+00
  0.7454E+00
  0.7344E+00
  0.7208E+00
  0.7061E+00
  0.6905E+00
  0.6742E+00
  0.6583E+00
  0.6424E+00
  0.6281E+00
  0.6145E+00
  0.6019E+00
  0.5915E+00
  0.5863E+00
  0.5881E+00
  0.5934E+00
  0.5918E+00
  0.5807E+00
  0.5460E+00
  0.4678E+00
  0.3810E+00
  0.3114E+00
  0.2608E+00
  0.2274E+00
  0.2094E+00
  0.2023E+00
  0.2004E+00
  0.2000E+00
  0.2000E+00
  0.2000E+00
  0.2000E+00
  0.2000E+00
  0.2000E+00
  0.2000E+00
  0.2000E+00
  0.2000E+00
  0.2000E+00
  0.2000E+00
  0.2000E+00
  0.2000E+00
  0.2000E+00
  0.2000E+00
  0.2000E+00
  0.2000E+00
  0.2000E+00
  0.2000E+00
  0.7442E+00
  0.7442E+00
  0.7442E+00
  0.7442E+00
  0.7442E+00
  0.7442E+00
  0.7442E+00
  0.7442E+00
  0.7442E+00
  0.7442E+00
  0.7442E+00
  0.7441E+00
  0.7436E+00
  0.7422E+00
  0.7385E+00
  0.7315E+00
  0.7212E+00
  0.7090E+00
  0.6960E+00
  0.6827E+00
  0.6694E+00
  0.6557E+00
  0.6425E+00
  0.6316E+00
  0.6239E+00
  0.6183E+00
  0.6173E+00
  0.6165E+00
  0.6127E+00
  0.6004E+00
  0.5729E+00
  0.5126E+00
  0.4258E+00
  0.3471E+00
  0.2875E+00
  0.2452E+00
  0.2189E+00
  0.2059E+00
  0.2013E+00
  0.2002E+00
  0.2000E+00
  0.2000E+00
  0.2000E+00
  0.2000E+00
  0.2000E+00
  0.2000E+00
  0.2000E+00
  0.2000E+00
  0.2000E+00
  0.2000E+00
  0.2000E+00
  0.2000E+00
  0.2000E+00
  0.2000E+00
  0.2000E+00
  0.2000E+00
  0.2000E+00
  0.2000E+00
  0.2000E+00
  0.2000E+00
  0.7466E+00
  0.7466E+00
  0.7466E+00
  0.7466E+00