# vtk DataFile Version 3.0
vtk output
ASCII
DATASET RECTILINEAR_GRID
DIMENSIONS          61          61 1
X_COORDINATES    61 double
  0.0000E+00
  0.1667E+00
  0.3333E+00
  0.5000E+00
  0.6667E+00
  0.8333E+00
  0.1000E+01
  0.1167E+01
  0.1333E+01
  0.1500E+01
  0.1667E+01
  0.1833E+01
  0.2000E+01
  0.2167E+01
  0.2333E+01
  0.2500E+01
  0.2667E+01
  0.2833E+01
  0.3000E+01
  0.3167E+01
  0.3333E+01
  0.3500E+01
  0.3667E+01
  0.3833E+01
  0.4000E+01
  0.4167E+01
  0.4333E+01
  0.4500E+01
  0.4667E+01
  0.4833E+01
  0.5000E+01
  0.5167E+01
  0.5333E+01
  0.5500E+01
  0.5667E+01
  0.5833E+01
  0.6000E+01
  0.6167E+01
  0.6333E+01
  0.6500E+01
  0.6667E+01
  0.6833E+01
  0.7000E+01
  0.7167E+01
  0.7333E+01
  0.7500E+01
  0.7667E+01
  0.7833E+01
  0.8000E+01
  0.8167E+01
  0.8333E+01
  0.8500E+01
  0.8667E+01
  0.8833E+01
  0.9000E+01
  0.9167E+01
  0.9333E+01
  0.9500E+01
  0.9667E+01
  0.9833E+01
  0.1000E+02
Y_COORDINATES    61 double
  0.0000E+00
  0.1667E+00
  0.3333E+00
  0.5000E+00
  0.6667E+00
  0.8333E+00
  0.1000E+01
  0.1167E+01
  0.1333E+01
  0.1500E+01
  0.1667E+01
  0.1833E+01
  0.2000E+01
  0.2167E+01
  0.2333E+01
  0.2500E+01
  0.2667E+01
  0.2833E+01
  0.3000E+01
  0.3167E+01
  0.3333E+01
  0.3500E+01
  0.3667E+01
  0.3833E+01
  0.4000E+01
  0.4167E+01
  0.4333E+01
  0.4500E+01
  0.4667E+01
  0.4833E+01
  0.5000E+01
  0.5167E+01
  0.5333E+01
  0.5500E+01
  0.5667E+01
  0.5833E+01
  0.6000E+01
  0.6167E+01
  0.6333E+01
  0.6500E+01
  0.6667E+01
  0.6833E+01
  0.7000E+01
  0.7167E+01
  0.7333E+01
  0.7500E+01
  0.7667E+01
  0.7833E+01
  0.8000E+01
  0.8167E+01
  0.8333E+01
  0.8500E+01
  0.8667E+01
  0.8833E+01
  0.9000E+01
  0.9167E+01
  0.9333E+01
  0.9500E+01
  0.9667E+01
  0.9833E+01
  0.1000E+02
Z_COORDINATES 1 double
0
CELL_DATA                 3600
FIELD FieldData 4
density 1                 3600 double
  0.5205E+01
  0.5205E+01
  0.5205E+01
  0.5205E+01
  0.5205E+01
  0.5205E+01
  0.5205E+01
  0.5205E+01
  0.5204E+01
  0.5202E+01
  0.5195E+01
  0.5173E+01
  0.5119E+01
  0.5017E+01
  0.4864E+01
  0.4676E+01
  0.4473E+01
  0.4266E+01
  0.4064E+01
  0.3868E+01
  0.3681E+01
  0.3502E+01
  0.3333E+01
  0.3173E+01
  0.3023E+01
  0.2880E+01
  0.2745E+01
  0.2617E+01
  0.2496E+01
  0.2381E+01
  0.2272E+01
  0.2168E+01
  0.2069E+01
  0.1974E+01
  0.1885E+01
  0.1799E+01
  0.1717E+01
  0.1639E+01
  0.1564E+01
  0.1494E+01
  0.1429E+01
  0.1371E+01
  0.1320E+01
  0.1285E+01
  0.1282E+01
  0.1298E+01
  0.1329E+01
  0.1359E+01
  0.1368E+01
  0.1363E+01
  0.1324E+01
  0.1235E+01
  0.1103E+01
  0.9428E+00
  0.7893E+00
  0.6661E+00
  0.6439E+00
  0.7071E+00
  0.1007E+01
  0.1290E+01
  0.5190E+01
  0.5190E+01
  0.5190E+01
  0.5190E+01
  0.5190E+01
  0.5190E+01
  0.5190E+01
  0.5190E+01
  0.5190E+01
  0.5188E+01
  0.5181E+01
  0.5159E+01
  0.5105E+01
  0.5004E+01
  0.4852E+01
  0.4665E+01
  0.4462E+01
  0.4256E+01
  0.4053E+01
  0.3858E+01
  0.3670E+01
  0.3492E+01
  0.3323E+01
  0.3163E+01
  0.3012E+01
  0.2869E+01
  0.2734E+01
  0.2606E+01
  0.2485E+01
  0.2370E+01
  0.2260E+01
  0.2155E+01
  0.2056E+01
  0.1961E+01
  0.1871E+01
  0.1785E+01
  0.1702E+01
  0.1623E+01
  0.1547E+01
  0.1476E+01
  0.1410E+01
  0.1351E+01
  0.1300E+01
  0.1263E+01
  0.1258E+01
  0.1271E+01
  0.1298E+01
  0.1325E+01
  0.1334E+01
  0.1330E+01
  0.1297E+01
  0.1217E+01
  0.1092E+01
  0.9367E+00
  0.7848E+00
  0.6630E+00
  0.6412E+00
  0.7076E+00
  0.9922E+00
  0.1281E+01
  0.5161E+01
  0.5161E+01
  0.5161E+01
  0.5161E+01
  0.5161E+01
  0.5161E+01
  0.5161E+01
  0.5160E+01
  0.5160E+01
  0.5158E+01
  0.5151E+01
  0.5130E+01
  0.5077E+01
  0.4977E+01
  0.4827E+01
  0.4641E+01
  0.4438E+01
  0.4233E+01
  0.4031E+01
  0.3835E+01
  0.3648E+01
  0.3469E+01
  0.3300E+01
  0.3140E+01
  0.2989E+01
  0.2846E+01
  0.2711E+01
  0.2583E+01
  0.2461E+01
  0.2345E+01
  0.2234E+01
  0.2129E+01
  0.2028E+01
  0.1932E+01
  0.1841E+01
  0.1754E+01
  0.1670E+01
  0.1589E+01
  0.1513E+01
  0.1440E+01
  0.1373E+01
  0.1312E+01
  0.1260E+01
  0.1219E+01
  0.1212E+01
  0.1219E+01
  0.1240E+01
  0.1264E+01
  0.1273E+01
  0.1271E+01
  0.1250E+01
  0.1185E+01
  0.1073E+01
  0.9246E+00
  0.7753E+00
  0.6566E+00
  0.6358E+00
  0.7004E+00
  0.9745E+00
  0.1306E+01
  0.5113E+01
  0.5113E+01
  0.5113E+01
  0.5113E+01
  0.5113E+01
  0.5113E+01
  0.5112E+01
  0.5112E+01
  0.5112E+01
  0.5110E+01
  0.5104E+01
  0.5083E+01
  0.5032E+01
  0.4934E+01
  0.4786E+01
  0.4602E+01
  0.4400E+01
  0.4195E+01
  0.3994E+01
  0.3798E+01
  0.3611E+01
  0.3433E+01
  0.3263E+01
  0.3103E+01
  0.2952E+01
  0.2808E+01
  0.2672E+01
  0.2543E+01
  0.2420E+01
  0.2303E+01
  0.2191E+01
  0.2084E+01
  0.1983E+01
  0.1886E+01
  0.1793E+01
  0.1704E+01
  0.1619E+01
  0.1537E+01
  0.1459E+01
  0.1385E+01
  0.1317E+01
  0.1255E+01
  0.1202E+01
  0.1159E+01
  0.1148E+01
  0.1151E+01
  0.1167E+01
  0.1186E+01
  0.1199E+01
  0.1200E+01
  0.1192E+01
  0.1147E+01
  0.1047E+01
  0.9060E+00
  0.7605E+00
  0.6475E+00
  0.6285E+00
  0.6900E+00
  0.9610E+00
  0.1336E+01
  0.5040E+01
  0.5040E+01
  0.5040E+01
  0.5040E+01
  0.5040E+01
  0.5040E+01
  0.5040E+01
  0.5040E+01
  0.5040E+01
  0.5038E+01
  0.5032E+01
  0.5012E+01
  0.4963E+01
  0.4869E+01
  0.4724E+01
  0.4541E+01
  0.4341E+01
  0.4138E+01
  0.3937E+01
  0.3742E+01
  0.3555E+01
  0.3376E+01
  0.3207E+01
  0.3046E+01
  0.2894E+01
  0.2750E+01
  0.2613E+01
  0.2483E+01
  0.2359E+01
  0.2241E+01
  0.2128E+01
  0.2020E+01
  0.1917E+01
  0.1819E+01
  0.1725E+01
  0.1636E+01
  0.1550E+01
  0.1468E+01
  0.1389E+01
  0.1316E+01
  0.1248E+01
  0.1186E+01
  0.1133E+01
  0.1090E+01
  0.1074E+01
  0.1075E+01
  0.1087E+01
  0.1104E+01
  0.1120E+01
  0.1131E+01
  0.1131E+01
  0.1110E+01
  0.1019E+01
  0.8800E+00
  0.7395E+00
  0.6361E+00
  0.6198E+00
  0.6780E+00
  0.9171E+00
  0.1279E+01
  0.4936E+01
  0.4936E+01
  0.4936E+01
  0.4936E+01
  0.4936E+01
  0.4936E+01
  0.4936E+01
  0.4935E+01
  0.4935E+01
  0.4934E+01
  0.4928E+01
  0.4910E+01
  0.4864E+01
  0.4773E+01
  0.4632E+01
  0.4454E+01
  0.4256E+01
  0.4054E+01
  0.3854E+01
  0.3660E+01
  0.3473E+01
  0.3295E+01
  0.3126E+01
  0.2965E+01
  0.2813E+01
  0.2668E+01
  0.2531E+01
  0.2401E+01
  0.2276E+01
  0.2158E+01
  0.2045E+01
  0.1937E+01
  0.1834E+01
  0.1736E+01
  0.1643E+01
  0.1554E+01
  0.1469E+01
  0.1387E+01
  0.1310E+01
  0.1238E+01
  0.1171E+01
  0.1111E+01
  0.1059E+01
  0.1017E+01
  0.9980E+00
  0.9979E+00
  0.1007E+01
  0.1025E+01
  0.1047E+01
  0.1071E+01
  0.1081E+01
  0.1069E+01
  0.9878E+00
  0.8479E+00
  0.7130E+00
  0.6225E+00
  0.6102E+00
  0.6584E+00
  0.8879E+00
  0.1324E+01
  0.4795E+01
  0.4795E+01
  0.4795E+01
  0.4795E+01
  0.4795E+01
  0.4795E+01
  0.4795E+01
  0.4795E+01
  0.4794E+01
  0.4793E+01
  0.4788E+01
  0.4771E+01
  0.4729E+01
  0.4643E+01
  0.4508E+01
  0.4334E+01
  0.4140E+01
  0.3940E+01
  0.3743E+01
  0.3550E+01
  0.3365E+01
  0.3189E+01
  0.3020E+01
  0.2861E+01
  0.2709E+01
  0.2566E+01
  0.2430E+01
  0.2300E+01
  0.2177E+01
  0.2060E+01
  0.1948E+01
  0.1841E+01
  0.1740E+01
  0.1644E+01
  0.1552E+01
  0.1465E+01
  0.1382E+01
  0.1303E+01
  0.1228E+01
  0.1159E+01
  0.1094E+01
  0.1036E+01
  0.9861E+00
  0.9459E+00
  0.9246E+00
  0.9241E+00
  0.9337E+00
  0.9537E+00
  0.9855E+00
  0.1026E+01
  0.1046E+01
  0.1035E+01
  0.9486E+00
  0.8090E+00
  0.6816E+00
  0.6081E+00
  0.6008E+00
  0.6357E+00
  0.8417E+00
  0.1281E+01
  0.4619E+01
  0.4619E+01
  0.4619E+01
  0.4619E+01
  0.4619E+01
  0.4619E+01
  0.4619E+01
  0.4619E+01
  0.4619E+01
  0.4618E+01
  0.4614E+01
  0.4599E+01
  0.4560E+01
  0.4480E+01
  0.4352E+01
  0.4184E+01
  0.3995E+01
  0.3800E+01
  0.3606E+01
  0.3417E+01
  0.3235E+01
  0.3061E+01
  0.2896E+01
  0.2739E+01
  0.2590E+01
  0.2449E+01
  0.2315E+01
  0.2188E+01
  0.2067E+01
  0.1952E+01
  0.1843E+01
  0.1740E+01
  0.1641E+01
  0.1548E+01
  0.1460E+01
  0.1376E+01
  0.1296E+01
  0.1220E+01
  0.1148E+01
  0.1081E+01
  0.1020E+01
  0.9643E+00
  0.9162E+00
  0.8770E+00
  0.8563E+00
  0.8563E+00
  0.8670E+00
  0.8938E+00
  0.9422E+00
  0.1003E+01
  0.1024E+01
  0.1005E+01
  0.9013E+00
  0.7629E+00
  0.6462E+00
  0.5944E+00
  0.5926E+00
  0.6189E+00
  0.7801E+00
  0.1292E+01
  0.4418E+01
  0.4418E+01
  0.4418E+01
  0.4418E+01
  0.4418E+01
  0.4418E+01
  0.4418E+01
  0.4418E+01
  0.4418E+01
  0.4417E+01
  0.4413E+01
  0.4400E+01
  0.4366E+01
  0.4293E+01
  0.4173E+01
  0.4013E+01
  0.3830E+01
  0.3641E+01
  0.3452E+01
  0.3268E+01
  0.3091E+01
  0.2921E+01
  0.2759E+01
  0.2606E+01
  0.2461E+01
  0.2324E+01
  0.2194E+01
  0.2071E+01
  0.1954E+01
  0.1843E+01
  0.1738E+01
  0.1638E+01
  0.1544E+01
  0.1454E+01
  0.1369E+01
  0.1289E+01
  0.1212E+01
  0.1140E+01
  0.1071E+01
  0.1008E+01
  0.9492E+00
  0.8963E+00
  0.8502E+00
  0.8113E+00
  0.7946E+00
  0.7957E+00
  0.8101E+00
  0.8510E+00
  0.9238E+00
  0.9965E+00
  0.1007E+01
  0.9681E+00
  0.8469E+00
  0.7114E+00
  0.6109E+00
  0.5836E+00
  0.5851E+00
  0.6079E+00
  0.7243E+00
  0.1299E+01
  0.4203E+01
  0.4203E+01
  0.4203E+01
  0.4203E+01
  0.4203E+01
  0.4203E+01
  0.4203E+01
  0.4203E+01
  0.4203E+01
  0.4202E+01
  0.4199E+01
  0.4188E+01
  0.4157E+01
  0.4092E+01
  0.3981E+01
  0.3830E+01
  0.3655E+01
  0.3472E+01
  0.3290E+01
  0.3112E+01
  0.2940E+01
  0.2776E+01
  0.2620E+01
  0.2472E+01
  0.2332E+01
  0.2199E+01
  0.2074E+01
  0.1955E+01
  0.1843E+01
  0.1736E+01
  0.1635E+01
  0.1540E+01
  0.1449E+01
  0.1364E+01
  0.1283E+01
  0.1206E+01
  0.1133E+01
  0.1064E+01
  0.9989E+00
  0.9385E+00
  0.8830E+00
  0.8325E+00
  0.7881E+00
  0.7501E+00
  0.7397E+00
  0.7432E+00
  0.7684E+00
  0.8372E+00
  0.9339E+00
  0.9926E+00
  0.9884E+00
  0.9183E+00
  0.7853E+00
  0.6580E+00
  0.5822E+00
  0.5737E+00
  0.5794E+00
  0.6069E+00
  0.6818E+00
  0.1138E+01
  0.3985E+01
  0.3985E+01
  0.3985E+01
  0.3985E+01
  0.3985E+01
  0.3985E+01
  0.3985E+01
  0.3985E+01
  0.3985E+01
  0.3984E+01
  0.3981E+01
  0.3972E+01
  0.3945E+01
  0.3887E+01
  0.3785E+01
  0.3644E+01
  0.3478E+01
  0.3302E+01
  0.3127E+01
  0.2956E+01
  0.2790E+01
  0.2632E+01
  0.2482E+01
  0.2339E+01
  0.2205E+01
  0.2077E+01
  0.1957E+01
  0.1844E+01
  0.1736E+01
  0.1634E+01
  0.1537E+01
  0.1446E+01
  0.1360E+01
  0.1278E+01
  0.1201E+01
  0.1128E+01
  0.1058E+01
  0.9926E+00
  0.9309E+00
  0.8735E+00
  0.8207E+00
  0.7726E+00
  0.7289E+00
  0.6957E+00
  0.6916E+00
  0.7035E+00
  0.7565E+00
  0.8525E+00
  0.9545E+00
  0.9805E+00
  0.9585E+00
  0.8545E+00
  0.7194E+00
  0.6064E+00
  0.5633E+00
  0.5635E+00
  0.5787E+00
  0.6138E+00
  0.6554E+00
  0.9240E+00
  0.3770E+01
  0.3770E+01
  0.3770E+01
  0.3770E+01
  0.3770E+01
  0.3770E+01
  0.3770E+01
  0.3770E+01
  0.3770E+01
  0.3770E+01
  0.3768E+01
  0.3760E+01
  0.3737E+01
  0.3685E+01
  0.3593E+01
  0.3461E+01
  0.3304E+01
  0.3137E+01
  0.2968E+01
  0.2804E+01
  0.2645E+01
  0.2493E+01
  0.2349E+01
  0.2212E+01
  0.2083E+01
  0.1961E+01
  0.1846E+01
  0.1737E+01
  0.1634E+01
  0.1537E+01
  0.1445E+01
  0.1357E+01
  0.1275E+01
  0.1197E+01
  0.1124E+01
  0.1054E+01
  0.9880E+00
  0.9255E+00
  0.8669E+00
  0.8125E+00
  0.7622E+00
  0.7161E+00
  0.6714E+00
  0.6514E+00
  0.6544E+00
  0.6907E+00
  0.7745E+00
  0.8889E+00
  0.9635E+00
  0.9639E+00
  0.9077E+00
  0.7817E+00
  0.6512E+00
  0.5654E+00
  0.5518E+00
  0.5579E+00
  0.5830E+00
  0.6198E+00
  0.6279E+00
  0.7374E+00
  0.3563E+01
  0.3563E+01
  0.3563E+01
  0.3563E+01
  0.3563E+01
  0.3563E+01
  0.3563E+01
  0.3563E+01
  0.3563E+01
  0.3563E+01
  0.3561E+01
  0.3555E+01
  0.3535E+01
  0.3490E+01
  0.3406E+01
  0.3284E+01
  0.3136E+01
  0.2977E+01
  0.2816E+01
  0.2658E+01
  0.2506E+01
  0.2360E+01
  0.2222E+01
  0.2091E+01
  0.1967E+01
  0.1850E+01
  0.1740E+01
  0.1636E+01
  0.1537E+01
  0.1444E+01
  0.1357E+01
  0.1273E+01
  0.1195E+01
  0.1121E+01
  0.1051E+01
  0.9847E+00
  0.9218E+00
  0.8624E+00
  0.8069E+00
  0.7551E+00
  0.7073E+00
  0.6607E+00
  0.6228E+00
  0.6185E+00
  0.6421E+00
  0.7111E+00
  0.8186E+00
  0.9297E+00
  0.9564E+00
  0.9352E+00
  0.8341E+00
  0.7001E+00
  0.5871E+00
  0.5423E+00
  0.5424E+00
  0.5580E+00
  0.5906E+00
  0.6168E+00
  0.5815E+00
  0.5783E+00
  0.3366E+01
  0.3366E+01
  0.3366E+01
  0.3366E+01
  0.3366E+01
  0.3366E+01
  0.3366E+01
  0.3366E+01
  0.3365E+01
  0.3365E+01
  0.3364E+01
  0.3358E+01
  0.3342E+01
  0.3303E+01
  0.3228E+01
  0.3115E+01
  0.2976E+01
  0.2824E+01
  0.2671E+01
  0.2520E+01
  0.2373E+01
  0.2234E+01
  0.2101E+01
  0.1975E+01
  0.1857E+01
  0.1745E+01
  0.1639E+01
  0.1540E+01
  0.1446E+01
  0.1357E+01
  0.1273E+01
  0.1194E+01
  0.1120E+01
  0.1049E+01
  0.9825E+00
  0.9194E+00
  0.8596E+00
  0.8033E+00
  0.7505E+00
  0.7012E+00
  0.6538E+00
  0.6079E+00
  0.5939E+00
  0.6076E+00
  0.6633E+00
  0.7588E+00
  0.8792E+00
  0.9448E+00
  0.9403E+00
  0.8731E+00
  0.7413E+00
  0.6156E+00
  0.5416E+00
  0.5324E+00
  0.5397E+00
  0.5661E+00
  0.5974E+00
  0.5988E+00
  0.5160E+00
  0.4353E+00
  0.3177E+01
  0.3177E+01
  0.3177E+01
  0.3177E+01
  0.3177E+01
  0.3177E+01
  0.3177E+01
  0.3177E+01
  0.3177E+01
  0.3177E+01
  0.3176E+01
  0.3171E+01
  0.3158E+01
  0.3124E+01
  0.3057E+01
  0.2954E+01
  0.2823E+01
  0.2679E+01
  0.2532E+01
  0.2388E+01
  0.2248E+01
  0.2114E+01
  0.1986E+01
  0.1866E+01
  0.1752E+01
  0.1645E+01
  0.1545E+01
  0.1449E+01
  0.1360E+01
  0.1275E+01
  0.1195E+01
  0.1120E+01
  0.1049E+01
  0.9814E+00
  0.9180E+00
  0.8580E+00
  0.8012E+00
  0.7477E+00
  0.6972E+00
  0.6495E+00
  0.6006E+00
  0.5760E+00
  0.5849E+00
  0.6289E+00
  0.7111E+00
  0.8287E+00
  0.9256E+00
  0.9357E+00
  0.8922E+00
  0.7693E+00
  0.6376E+00
  0.5465E+00
  0.5228E+00
  0.5260E+00
  0.5455E+00
  0.5777E+00
  0.5950E+00
  0.5586E+00
  0.4277E+00
  0.3378E+00
  0.2998E+01
  0.2998E+01
  0.2998E+01
  0.2998E+01
  0.2998E+01
  0.2998E+01
  0.2998E+01
  0.2998E+01
  0.2998E+01
  0.2998E+01
  0.2997E+01
  0.2993E+01
  0.2982E+01
  0.2953E+01
  0.2894E+01
  0.2799E+01
  0.2677E+01
  0.2541E+01
  0.2401E+01
  0.2262E+01
  0.2128E+01
  0.2000E+01
  0.1878E+01
  0.1762E+01
  0.1654E+01
  0.1551E+01
  0.1455E+01
  0.1364E+01
  0.1278E+01
  0.1197E+01
  0.1121E+01
  0.1049E+01
  0.9814E+00
  0.9176E+00
  0.8572E+00
  0.8002E+00
  0.7462E+00
  0.6949E+00
  0.6466E+00
  0.5962E+00
  0.5662E+00
  0.5706E+00
  0.6055E+00
  0.6766E+00
  0.7868E+00
  0.8977E+00
  0.9250E+00
  0.8969E+00
  0.7821E+00
  0.6485E+00
  0.5512E+00
  0.5152E+00
  0.5157E+00
  0.5285E+00
  0.5590E+00
  0.5823E+00
  0.5726E+00
  0.4806E+00
  0.3502E+00
  0.2724E+00
  0.2828E+01
  0.2828E+01
  0.2828E+01
  0.2828E+01
  0.2828E+01
  0.2828E+01
  0.2828E+01
  0.2828E+01
  0.2828E+01
  0.2828E+01
  0.2827E+01
  0.2824E+01
  0.2815E+01
  0.2790E+01
  0.2738E+01
  0.2652E+01
  0.2539E+01
  0.2409E+01
  0.2276E+01
  0.2143E+01
  0.2015E+01
  0.1892E+01
  0.1775E+01
  0.1664E+01
  0.1560E+01
  0.1462E+01
  0.1370E+01
  0.1283E+01
  0.1201E+01
  0.1124E+01
  0.1051E+01
  0.9825E+00
  0.9180E+00
  0.8572E+00
  0.7999E+00
  0.7456E+00
  0.6937E+00
  0.6447E+00
  0.5933E+00
  0.5607E+00
  0.5626E+00
  0.5897E+00
  0.6521E+00
  0.7544E+00
  0.8738E+00
  0.9120E+00
  0.8910E+00
  0.7841E+00
  0.6492E+00
  0.5500E+00
  0.5092E+00
  0.5083E+00
  0.5172E+00
  0.5433E+00
  0.5694E+00
  0.5704E+00
  0.5125E+00
  0.3901E+00
  0.2899E+00
  0.2326E+00
  0.2666E+01
  0.2666E+01
  0.2666E+01
  0.2666E+01
  0.2666E+01
  0.2666E+01
  0.2666E+01
  0.2666E+01
  0.2666E+01
  0.2666E+01
  0.2665E+01
  0.2663E+01
  0.2655E+01
  0.2634E+01
  0.2589E+01
  0.2512E+01
  0.2406E+01
  0.2284E+01
  0.2157E+01
  0.2030E+01
  0.1907E+01
  0.1789E+01
  0.1677E+01
  0.1571E+01
  0.1471E+01
  0.1377E+01
  0.1289E+01
  0.1206E+01
  0.1128E+01
  0.1054E+01
  0.9847E+00
  0.9194E+00
  0.8580E+00
  0.8002E+00
  0.7456E+00
  0.6934E+00
  0.6440E+00
  0.5923E+00
  0.5568E+00
  0.5573E+00
  0.5802E+00
  0.6331E+00
  0.7243E+00
  0.8483E+00
  0.9007E+00
  0.8856E+00
  0.7852E+00
  0.6467E+00
  0.5462E+00
  0.5055E+00
  0.5042E+00
  0.5096E+00
  0.5319E+00
  0.5586E+00
  0.5658E+00
  0.5289E+00
  0.4219E+00
  0.3183E+00
  0.2469E+00
  0.2116E+00
  0.2512E+01
  0.2512E+01
  0.2512E+01
  0.2512E+01
  0.2512E+01
  0.2512E+01
  0.2512E+01
  0.2512E+01
  0.2512E+01
  0.2511E+01
  0.2511E+01
  0.2509E+01
  0.2503E+01
  0.2486E+01
  0.2446E+01
  0.2377E+01
  0.2279E+01
  0.2164E+01
  0.2043E+01
  0.1922E+01
  0.1804E+01
  0.1691E+01
  0.1584E+01
  0.1482E+01
  0.1386E+01
  0.1297E+01
  0.1212E+01
  0.1133E+01
  0.1058E+01
  0.9880E+00
  0.9218E+00
  0.8596E+00
  0.8012E+00
  0.7462E+00
  0.6937E+00
  0.6439E+00
  0.5925E+00
  0.5549E+00
  0.5540E+00
  0.5744E+00
  0.6224E+00
  0.7043E+00
  0.8198E+00
  0.8878E+00
  0.8805E+00
  0.7880E+00
  0.6463E+00
  0.5453E+00
  0.5071E+00
  0.5040E+00
  0.5067E+00
  0.5240E+00
  0.5498E+00
  0.5599E+00
  0.5360E+00
  0.4449E+00
  0.3429E+00
  0.2661E+00
  0.2201E+00
  0.2032E+00
  0.2365E+01
  0.2365E+01
  0.2365E+01
  0.2365E+01
  0.2365E+01
  0.2365E+01
  0.2365E+01
  0.2365E+01
  0.2365E+01
  0.2365E+01
  0.2364E+01
  0.2363E+01
  0.2358E+01
  0.2343E+01
  0.2309E+01
  0.2247E+01
  0.2158E+01
  0.2050E+01
  0.1935E+01
  0.1819E+01
  0.1707E+01
  0.1598E+01
  0.1495E+01
  0.1398E+01
  0.1306E+01
  0.1220E+01
  0.1140E+01
  0.1064E+01
  0.9925E+00
  0.9255E+00
  0.8624E+00
  0.8033E+00
  0.7477E+00
  0.6949E+00
  0.6446E+00
  0.5929E+00
  0.5552E+00
  0.5527E+00
  0.5694E+00
  0.6159E+00
  0.6941E+00
  0.8075E+00
  0.8819E+00
  0.8777E+00
  0.7930E+00
  0.6505E+00
  0.5484E+00
  0.5125E+00
  0.5075E+00
  0.5090E+00
  0.5222E+00
  0.5444E+00
  0.5542E+00
  0.5363E+00
  0.4586E+00
  0.3616E+00
  0.2831E+00
  0.2310E+00
  0.2066E+00
  0.2006E+00
  0.2225E+01
  0.2225E+01
  0.2225E+01
  0.2225E+01
  0.2225E+01
  0.2225E+01
  0.2225E+01
  0.2225E+01
  0.2225E+01
  0.2225E+01
  0.2225E+01
  0.2224E+01
  0.2220E+01
  0.2208E+01
  0.2179E+01
  0.2124E+01
  0.2042E+01
  0.1941E+01
  0.1832E+01
  0.1722E+01
  0.1614E+01
  0.1510E+01
  0.1412E+01
  0.1318E+01
  0.1231E+01
  0.1148E+01
  0.1071E+01
  0.9988E+00
  0.9308E+00
  0.8669E+00
  0.8069E+00
  0.7505E+00
  0.6972E+00
  0.6463E+00
  0.5940E+00
  0.5566E+00
  0.5540E+00
  0.5698E+00
  0.6099E+00
  0.6818E+00
  0.7981E+00
  0.8843E+00
  0.8821E+00
  0.8060E+00
  0.6627E+00
  0.5555E+00
  0.5193E+00
  0.5136E+00
  0.5148E+00
  0.5254E+00
  0.5435E+00
  0.5514E+00
  0.5356E+00
  0.4644E+00
  0.3728E+00
  0.2960E+00
  0.2414E+00
  0.2113E+00
  0.2015E+00
  0.2001E+00
  0.2094E+01
  0.2094E+01
  0.2094E+01
  0.2094E+01
  0.2094E+01
  0.2094E+01
  0.2094E+01
  0.2094E+01
  0.2094E+01
  0.2094E+01
  0.2094E+01
  0.2093E+01
  0.2090E+01
  0.2081E+01
  0.2056E+01
  0.2008E+01
  0.1933E+01
  0.1839E+01
  0.1736E+01
  0.1631E+01
  0.1528E+01
  0.1428E+01
  0.1334E+01
  0.1244E+01
  0.1160E+01
  0.1081E+01
  0.1008E+01
  0.9384E+00
  0.8734E+00
  0.8125E+00
  0.7551E+00
  0.7012E+00
  0.6492E+00
  0.5960E+00
  0.5597E+00
  0.5568E+00
  0.5728E+00
  0.6152E+00
  0.6831E+00
  0.7897E+00
  0.8821E+00
  0.8863E+00
  0.8225E+00
  0.6803E+00
  0.5686E+00
  0.5270E+00
  0.5204E+00
  0.5213E+00
  0.5301E+00
  0.5453E+00
  0.5516E+00
  0.5364E+00
  0.4677E+00
  0.3789E+00
  0.3043E+00
  0.2498E+00
  0.2163E+00
  0.2030E+00
  0.2003E+00
  0.2000E+00
  0.1973E+01
  0.1973E+01
  0.1973E+01
  0.1973E+01
  0.1973E+01
  0.1973E+01
  0.1973E+01
  0.1973E+01
  0.1973E+01
  0.1973E+01
  0.1973E+01
  0.1972E+01
  0.1970E+01
  0.1962E+01
  0.1941E+01
  0.1899E+01
  0.1831E+01
  0.1744E+01
  0.1646E+01
  0.1546E+01
  0.1448E+01
  0.1353E+01
  0.1262E+01
  0.1176E+01
  0.1095E+01
  0.1020E+01
  0.9491E+00
  0.8829E+00
  0.8206E+00
  0.7621E+00
  0.7072E+00
  0.6539E+00
  0.5995E+00
  0.5660E+00
  0.5620E+00
  0.5792E+00
  0.6228E+00
  0.6916E+00
  0.7954E+00
  0.8807E+00
  0.8862E+00
  0.8309E+00
  0.6935E+00
  0.5809E+00
  0.5362E+00
  0.5277E+00
  0.5281E+00
  0.5357E+00
  0.5487E+00
  0.5532E+00
  0.5373E+00
  0.4689E+00
  0.3823E+00
  0.3093E+00
  0.2555E+00
  0.2207E+00
  0.2047E+00
  0.2005E+00
  0.2000E+00
  0.2000E+00
  0.1863E+01
  0.1863E+01
  0.1863E+01
  0.1863E+01
  0.1863E+01
  0.1863E+01
  0.1863E+01
  0.1863E+01
  0.1863E+01
  0.1863E+01
  0.1863E+01
  0.1862E+01
  0.1860E+01
  0.1854E+01
  0.1837E+01
  0.1800E+01
  0.1739E+01
  0.1658E+01
  0.1565E+01
  0.1470E+01
  0.1376E+01
  0.1284E+01
  0.1197E+01
  0.1115E+01
  0.1037E+01
  0.9643E+00
  0.8962E+00
  0.8324E+00
  0.7725E+00
  0.7160E+00
  0.6606E+00
  0.6071E+00
  0.5782E+00
  0.5707E+00
  0.5882E+00
  0.6345E+00
  0.7065E+00
  0.8052E+00
  0.8789E+00
  0.8827E+00
  0.8285E+00
  0.6972E+00
  0.5870E+00
  0.5424E+00
  0.5349E+00
  0.5351E+00
  0.5419E+00
  0.5532E+00
  0.5560E+00
  0.5387E+00
  0.4690E+00
  0.3826E+00
  0.3112E+00
  0.2589E+00
  0.2240E+00
  0.2063E+00
  0.2009E+00
  0.2001E+00
  0.2000E+00
  0.2000E+00
  0.1767E+01
  0.1767E+01
  0.1767E+01
  0.1767E+01
  0.1767E+01
  0.1767E+01
  0.1767E+01
  0.1767E+01
  0.1767E+01
  0.1767E+01
  0.1767E+01
  0.1766E+01
  0.1765E+01
  0.1760E+01
  0.1745E+01
  0.1713E+01
  0.1658E+01
  0.1583E+01
  0.1495E+01
  0.1404E+01
  0.1313E+01
  0.1226E+01
  0.1141E+01
  0.1062E+01
  0.9866E+00
  0.9162E+00
  0.8501E+00
  0.7881E+00
  0.7289E+00
  0.6712E+00
  0.6228E+00
  0.5941E+00
  0.5852E+00
  0.6046E+00
  0.6514E+00
  0.7249E+00
  0.8246E+00
  0.8838E+00
  0.8793E+00
  0.8165E+00
  0.6892E+00
  0.5852E+00
  0.5430E+00
  0.5391E+00
  0.5398E+00
  0.5474E+00
  0.5582E+00
  0.5596E+00
  0.5408E+00
  0.4691E+00
  0.3827E+00
  0.3112E+00
  0.2601E+00
  0.2259E+00
  0.2076E+00
  0.2013E+00
  0.2001E+00
  0.2000E+00
  0.2000E+00
  0.2000E+00
  0.1684E+01
  0.1684E+01
  0.1684E+01
  0.1684E+01
  0.1684E+01
  0.1684E+01
  0.1684E+01
  0.1684E+01
  0.1684E+01
  0.1684E+01
  0.1684E+01
  0.1684E+01
  0.1683E+01
  0.1679E+01
  0.1667E+01
  0.1639E+01
  0.1590E+01
  0.1521E+01
  0.1439E+01
  0.1351E+01
  0.1264E+01
  0.1178E+01
  0.1097E+01
  0.1019E+01
  0.9463E+00
  0.8770E+00
  0.8113E+00
  0.7500E+00
  0.6956E+00
  0.6518E+00
  0.6183E+00
  0.6080E+00
  0.6275E+00
  0.6780E+00
  0.7530E+00
  0.8453E+00
  0.8921E+00
  0.8800E+00
  0.8051E+00
  0.6764E+00
  0.5773E+00
  0.5408E+00
  0.5382E+00
  0.5404E+00
  0.5500E+00
  0.5615E+00
  0.5628E+00
  0.5434E+00
  0.4696E+00
  0.3826E+00
  0.3113E+00
  0.2601E+00
  0.2267E+00
  0.2084E+00
  0.2016E+00
  0.2002E+00
  0.2000E+00
  0.2000E+00
  0.2000E+00
  0.2000E+00
  0.1650E+01
  0.1650E+01
  0.1650E+01
  0.1650E+01
  0.1650E+01
  0.1650E+01
  0.1650E+01
  0.1650E+01
  0.1650E+01
  0.1650E+01
  0.1650E+01
  0.1650E+01
  0.1649E+01
  0.1646E+01
  0.1636E+01
  0.1614E+01
  0.1570E+01
  0.1505E+01
  0.1424E+01
  0.1337E+01
  0.1249E+01
  0.1163E+01
  0.1079E+01
  0.9993E+00
  0.9249E+00
  0.8564E+00
  0.7947E+00
  0.7399E+00
  0.6915E+00
  0.6543E+00
  0.6426E+00
  0.6618E+00
  0.7118E+00
  0.7867E+00
  0.8733E+00
  0.9016E+00
  0.8827E+00
  0.7956E+00
  0.6647E+00
  0.5683E+00
  0.5361E+00
  0.5356E+00
  0.5388E+00
  0.5492E+00
  0.5616E+00
  0.5638E+00
  0.5447E+00
  0.4703E+00
  0.3825E+00
  0.3111E+00
  0.2599E+00
  0.2266E+00
  0.2087E+00
  0.2018E+00
  0.2002E+00
  0.2000E+00
  0.2000E+00
  0.2000E+00
  0.2000E+00
  0.2000E+00
  0.1651E+01
  0.1651E+01
  0.1651E+01
  0.1651E+01
  0.1651E+01
  0.1651E+01
  0.1651E+01
  0.1651E+01
  0.1651E+01
  0.1651E+01
  0.1651E+01
  0.1651E+01
  0.1650E+01
  0.1647E+01
  0.1639E+01
  0.1618E+01
  0.1576E+01
  0.1512E+01
  0.1431E+01
  0.1342E+01
  0.1252E+01
  0.1164E+01
  0.1079E+01
  0.9990E+00
  0.9243E+00
  0.8564E+00
  0.7958E+00
  0.7431E+00
  0.7029E+00
  0.6905E+00
  0.7094E+00
  0.7588E+00
  0.8285E+00
  0.8990E+00
  0.9110E+00
  0.8873E+00
  0.7880E+00
  0.6543E+00
  0.5583E+00
  0.5288E+00
  0.5295E+00
  0.5354E+00
  0.5470E+00
  0.5604E+00
  0.5635E+00
  0.5444E+00
  0.4699E+00
  0.3820E+00
  0.3106E+00
  0.2595E+00
  0.2263E+00
  0.2086E+00
  0.2019E+00
  0.2003E+00
  0.2000E+00
  0.2000E+00
  0.2000E+00
  0.2000E+00
  0.2000E+00
  0.2000E+00
  0.1664E+01
  0.1664E+01
  0.1664E+01
  0.1664E+01
  0.1664E+01
  0.1664E+01
  0.1664E+01
  0.1664E+01
  0.1664E+01
  0.1664E+01
  0.1664E+01
  0.1664E+01
  0.1663E+01
  0.1661E+01
  0.1654E+01
  0.1636E+01
  0.1597E+01
  0.1535E+01
  0.1454E+01
  0.1363E+01
  0.1269E+01
  0.1177E+01
  0.1090E+01
  0.1008E+01
  0.9340E+00
  0.8672E+00
  0.8104E+00
  0.7688E+00
  0.7561E+00
  0.7732E+00
  0.8192E+00
  0.8792E+00
  0.9246E+00
  0.9228E+00
  0.8923E+00
  0.7843E+00
  0.6474E+00
  0.5488E+00
  0.5202E+00
  0.5216E+00
  0.5294E+00
  0.5426E+00
  0.5578E+00
  0.5624E+00
  0.5439E+00
  0.4697E+00
  0.3810E+00
  0.3098E+00
  0.2590E+00
  0.2259E+00
  0.2084E+00
  0.2018E+00
  0.2003E+00
  0.2000E+00
  0.2000E+00
  0.2000E+00
  0.2000E+00
  0.2000E+00
  0.2000E+00
  0.2000E+00
  0.1681E+01
  0.1681E+01
  0.1681E+01
  0.1681E+01
  0.1681E+01
  0.1681E+01
  0.1681E+01
  0.1681E+01
  0.1681E+01
  0.1681E+01
  0.1681E+01
  0.1681E+01
  0.1681E+01
  0.1679E+01
  0.1673E+01
  0.1657E+01
  0.1621E+01
  0.1560E+01
  0.1478E+01
  0.1385E+01
  0.1289E+01
  0.1195E+01
  0.1107E+01
  0.1026E+01
  0.9541E+00
  0.8941E+00
  0.8517E+00
  0.8366E+00
  0.8516E+00
  0.8882E+00
  0.9289E+00
  0.9463E+00
  0.9358E+00
  0.8967E+00
  0.7843E+00
  0.6466E+00
  0.5438E+00
  0.5113E+00
  0.5129E+00
  0.5216E+00
  0.5367E+00
  0.5536E+00
  0.5599E+00
  0.5427E+00
  0.4707E+00
  0.3822E+00
  0.3099E+00
  0.2587E+00
  0.2257E+00
  0.2083E+00
  0.2018E+00
  0.2002E+00
  0.2000E+00
  0.2000E+00
  0.2000E+00
  0.2000E+00
  0.2000E+00
  0.2000E+00
  0.2000E+00
  0.2000E+00
  0.1692E+01
  0.1692E+01
  0.1692E+01
  0.1692E+01
  0.1692E+01
  0.1692E+01
  0.1692E+01
  0.1692E+01
  0.1692E+01
  0.1692E+01
  0.1692E+01
  0.1692E+01
  0.1692E+01
  0.1690E+01
  0.1684E+01
  0.1667E+01
  0.1631E+01
  0.1569E+01
  0.1487E+01
  0.1394E+01
  0.1299E+01
  0.1208E+01
  0.1123E+01
  0.1048E+01
  0.9860E+00
  0.9425E+00
  0.9238E+00
  0.9328E+00
  0.9538E+00
  0.9635E+00
  0.9560E+00
  0.9417E+00
  0.8925E+00
  0.7825E+00
  0.6495E+00
  0.5454E+00
  0.5061E+00
  0.5066E+00
  0.5135E+00
  0.5299E+00
  0.5489E+00
  0.5562E+00
  0.5400E+00
  0.4699E+00
  0.3827E+00
  0.3109E+00
  0.2591E+00
  0.2257E+00
  0.2083E+00
  0.2018E+00
  0.2002E+00
  0.2000E+00
  0.2000E+00
  0.2000E+00
  0.2000E+00
  0.2000E+00
  0.2000E+00
  0.2000E+00
  0.2000E+00
  0.2000E+00
  0.1690E+01
  0.1690E+01
  0.1690E+01
  0.1690E+01
  0.1690E+01
  0.1690E+01
  0.1690E+01
  0.1690E+01
  0.1690E+01
  0.1690E+01
  0.1690E+01
  0.1689E+01
  0.1689E+01
  0.1687E+01
  0.1680E+01
  0.1663E+01
  0.1627E+01
  0.1565E+01
  0.1483E+01
  0.1391E+01
  0.1298E+01
  0.1210E+01
  0.1134E+01
  0.1072E+01
  0.1027E+01
  0.1003E+01
  0.9954E+00
  0.9918E+00
  0.9794E+00
  0.9643E+00
  0.9359E+00
  0.8733E+00
  0.7702E+00
  0.6487E+00
  0.5495E+00
  0.5062E+00
  0.5044E+00
  0.5082E+00
  0.5242E+00
  0.5445E+00
  0.5527E+00
  0.5377E+00
  0.4696E+00
  0.3827E+00
  0.3111E+00
  0.2596E+00
  0.2259E+00
  0.2083E+00
  0.2018E+00
  0.2002E+00
  0.2000E+00
  0.2000E+00
  0.2000E+00
  0.2000E+00
  0.2000E+00
  0.2000E+00
  0.2000E+00
  0.2000E+00
  0.2000E+00
  0.2000E+00
  0.1660E+01
  0.1660E+01
  0.1660E+01
  0.1660E+01
  0.1660E+01
  0.1660E+01
  0.1660E+01
  0.1660E+01
  0.1660E+01
  0.1660E+01
  0.1660E+01
  0.1660E+01
  0.1659E+01
  0.1656E+01
  0.1647E+01
  0.1628E+01
  0.1590E+01
  0.1529E+01
  0.1451E+01
  0.1366E+01
  0.1282E+01
  0.1205E+01
  0.1135E+01
  0.1083E+01
  0.1047E+01
  0.1023E+01
  0.1006E+01
  0.9875E+00
  0.9580E+00
  0.9079E+00
  0.8353E+00
  0.7422E+00
  0.6387E+00
  0.5512E+00
  0.5094E+00
  0.5047E+00
  0.5076E+00
  0.5224E+00
  0.5427E+00
  0.5511E+00
  0.5363E+00
  0.4691E+00
  0.3829E+00
  0.3115E+00
  0.2600E+00
  0.2264E+00
  0.2084E+00
  0.2018E+00
  0.2002E+00
  0.2000E+00
  0.2000E+00
  0.2000E+00
  0.2000E+00
  0.2000E+00
  0.2000E+00
  0.2000E+00
  0.2000E+00
  0.2000E+00
  0.2000E+00
  0.2000E+00
  0.1564E+01
  0.1564E+01
  0.1564E+01
  0.1564E+01
  0.1564E+01
  0.1564E+01
  0.1564E+01
  0.1564E+01
  0.1564E+01
  0.1564E+01
  0.1564E+01
  0.1563E+01
  0.1561E+01
  0.1557E+01
  0.1545E+01
  0.1523E+01
  0.1486E+01
  0.1430E+01
  0.1364E+01
  0.1293E+01
  0.1225E+01
  0.1167E+01
  0.1119E+01
  0.1073E+01
  0.1036E+01
  0.1004E+01
  0.9668E+00
  0.9173E+00
  0.8547E+00
  0.7822E+00
  0.7004E+00
  0.6162E+00
  0.5478E+00
  0.5155E+00
  0.5082E+00
  0.5111E+00
  0.5260E+00
  0.5447E+00
  0.5515E+00
  0.5360E+00
  0.4686E+00
  0.3826E+00
  0.3113E+00
  0.2602E+00
  0.2267E+00
  0.2086E+00
  0.2018E+00
  0.2002E+00
  0.2000E+00
  0.2000E+00
  0.2000E+00
  0.2000E+00
  0.2000E+00
  0.2000E+00
  0.2000E+00
  0.2000E+00
  0.2000E+00
  0.2000E+00
  0.2000E+00
  0.2000E+00
  0.1398E+01
  0.1398E+01
  0.1398E+01
  0.1398E+01
  0.1398E+01
  0.1398E+01
  0.1398E+01
  0.1398E+01
  0.1398E+01
  0.1398E+01
  0.1397E+01
  0.1396E+01
  0.1394E+01
  0.1387E+01
  0.1374E+01
  0.1352E+01
  0.1318E+01
  0.1274E+01
  0.1223E+01
  0.1170E+01
  0.1120E+01
  0.1073E+01
  0.1032E+01
  0.9941E+00
  0.9506E+00
  0.9013E+00
  0.8462E+00
  0.7846E+00
  0.7193E+00
  0.6517E+00
  0.5873E+00
  0.5413E+00
  0.5230E+00
  0.5157E+00
  0.5185E+00
  0.5337E+00
  0.5510E+00
  0.5544E+00
  0.5368E+00
  0.4669E+00
  0.3821E+00
  0.3113E+00
  0.2601E+00
  0.2267E+00
  0.2087E+00
  0.2019E+00
  0.2003E+00
  0.2000E+00
  0.2000E+00
  0.2000E+00
  0.2000E+00
  0.2000E+00
  0.2000E+00
  0.2000E+00
  0.2000E+00
  0.2000E+00
  0.2000E+00
  0.2000E+00
  0.2000E+00
  0.2000E+00
  0.1188E+01
  0.1188E+01
  0.1188E+01
  0.1188E+01
  0.1188E+01
  0.1188E+01
  0.1188E+01
  0.1188E+01
  0.1188E+01
  0.1188E+01
  0.1188E+01
  0.1186E+01
  0.1182E+01
  0.1174E+01
  0.1161E+01
  0.1140E+01
  0.1113E+01
  0.1081E+01
  0.1046E+01
  0.1010E+01
  0.9730E+00
  0.9357E+00
  0.8964E+00
  0.8562E+00
  0.8123E+00
  0.7637E+00
  0.7112E+00
  0.6575E+00
  0.6063E+00
  0.5652E+00
  0.5430E+00
  0.5322E+00
  0.5258E+00
  0.5296E+00
  0.5445E+00
  0.5597E+00
  0.5593E+00
  0.5380E+00
  0.4645E+00
  0.3788E+00
  0.3092E+00
  0.2589E+00
  0.2260E+00
  0.2085E+00
  0.2018E+00
  0.2003E+00
  0.2000E+00
  0.2000E+00
  0.2000E+00
  0.2000E+00
  0.2000E+00
  0.2000E+00
  0.2000E+00
  0.2000E+00
  0.2000E+00
  0.2000E+00
  0.2000E+00
  0.2000E+00
  0.2000E+00
  0.2000E+00
  0.9882E+00
  0.9882E+00
  0.9882E+00
  0.9882E+00