# vtk DataFile Version 3.0
vtk output
ASCII
DATASET RECTILINEAR_GRID
DIMENSIONS          61          61 1
X_COORDINATES    61 double
  0.0000E+00
  0.1667E+00
  0.3333E+00
  0.5000E+00
  0.6667E+00
  0.8333E+00
  0.1000E+01
  0.1167E+01
  0.1333E+01
  0.1500E+01
  0.1667E+01
  0.1833E+01
  0.2000E+01
  0.2167E+01
  0.2333E+01
  0.2500E+01
  0.2667E+01
  0.2833E+01
  0.3000E+01
  0.3167E+01
  0.3333E+01
  0.3500E+01
  0.3667E+01
  0.3833E+01
  0.4000E+01
  0.4167E+01
  0.4333E+01
  0.4500E+01
  0.4667E+01
  0.4833E+01
  0.5000E+01
  0.5167E+01
  0.5333E+01
  0.5500E+01
  0.5667E+01
  0.5833E+01
  0.6000E+01
  0.6167E+01
  0.6333E+01
  0.6500E+01
  0.6667E+01
  0.6833E+01
  0.7000E+01
  0.7167E+01
  0.7333E+01
  0.7500E+01
  0.7667E+01
  0.7833E+01
  0.8000E+01
  0.8167E+01
  0.8333E+01
  0.8500E+01
  0.8667E+01
  0.8833E+01
  0.9000E+01
  0.9167E+01
  0.9333E+01
  0.9500E+01
  0.9667E+01
  0.9833E+01
  0.1000E+02
Y_COORDINATES    61 double
  0.0000E+00
  0.1667E+00
  0.3333E+00
  0.5000E+00
  0.6667E+00
  0.8333E+00
  0.1000E+01
  0.1167E+01
  0.1333E+01
  0.1500E+01
  0.1667E+01
  0.1833E+01
  0.2000E+01
  0.2167E+01
  0.2333E+01
  0.2500E+01
  0.2667E+01
  0.2833E+01
  0.3000E+01
  0.3167E+01
  0.3333E+01
  0.3500E+01
  0.3667E+01
  0.3833E+01
  0.4000E+01
  0.4167E+01
  0.4333E+01
  0.4500E+01
  0.4667E+01
  0.4833E+01
  0.5000E+01
  0.5167E+01
  0.5333E+01
  0.5500E+01
  0.5667E+01
  0.5833E+01
  0.6000E+01
  0.6167E+01
  0.6333E+01
  0.6500E+01
  0.6667E+01
  0.6833E+01
  0.7000E+01
  0.7167E+01
  0.7333E+01
  0.7500E+01
  0.7667E+01
  0.7833E+01
  0.8000E+01
  0.8167E+01
  0.8333E+01
  0.8500E+01
  0.8667E+01
  0.8833E+01
  0.9000E+01
  0.9167E+01
  0.9333E+01
  0.9500E+01
  0.9667E+01
  0.9833E+01
  0.1000E+02
Z_COORDINATES 1 double
0
CELL_DATA                 3600
FIELD FieldData 4
density 1                 3600 double
  0.4050E+01
  0.4050E+01
  0.4050E+01
  0.4050E+01
  0.4050E+01
  0.4050E+01
  0.4050E+01
  0.4050E+01
  0.4049E+01
  0.4048E+01
  0.4042E+01
  0.4025E+01
  0.3983E+01
  0.3904E+01
  0.3785E+01
  0.3639E+01
  0.3481E+01
  0.3320E+01
  0.3163E+01
  0.3010E+01
  0.2864E+01
  0.2725E+01
  0.2594E+01
  0.2469E+01
  0.2352E+01
  0.2241E+01
  0.2136E+01
  0.2037E+01
  0.1943E+01
  0.1854E+01
  0.1769E+01
  0.1689E+01
  0.1612E+01
  0.1540E+01
  0.1471E+01
  0.1406E+01
  0.1344E+01
  0.1285E+01
  0.1230E+01
  0.1179E+01
  0.1134E+01
  0.1095E+01
  0.1081E+01
  0.1085E+01
  0.1109E+01
  0.1139E+01
  0.1165E+01
  0.1173E+01
  0.1168E+01
  0.1133E+01
  0.1053E+01
  0.9356E+00
  0.8045E+00
  0.6906E+00
  0.6188E+00
  0.6054E+00
  0.6079E+00
  0.6384E+00
  0.8100E+00
  0.8788E+00
  0.4038E+01
  0.4038E+01
  0.4038E+01
  0.4038E+01
  0.4038E+01
  0.4038E+01
  0.4038E+01
  0.4038E+01
  0.4038E+01
  0.4037E+01
  0.4031E+01
  0.4014E+01
  0.3972E+01
  0.3894E+01
  0.3776E+01
  0.3630E+01
  0.3472E+01
  0.3312E+01
  0.3154E+01
  0.3002E+01
  0.2856E+01
  0.2717E+01
  0.2585E+01
  0.2461E+01
  0.2343E+01
  0.2232E+01
  0.2128E+01
  0.2028E+01
  0.1934E+01
  0.1845E+01
  0.1760E+01
  0.1679E+01
  0.1602E+01
  0.1529E+01
  0.1460E+01
  0.1394E+01
  0.1332E+01
  0.1272E+01
  0.1217E+01
  0.1165E+01
  0.1119E+01
  0.1080E+01
  0.1064E+01
  0.1067E+01
  0.1087E+01
  0.1115E+01
  0.1139E+01
  0.1147E+01
  0.1144E+01
  0.1115E+01
  0.1041E+01
  0.9286E+00
  0.8001E+00
  0.6869E+00
  0.6162E+00
  0.6038E+00
  0.6065E+00
  0.6347E+00
  0.7890E+00
  0.9816E+00
  0.4015E+01
  0.4015E+01
  0.4015E+01
  0.4015E+01
  0.4015E+01
  0.4015E+01
  0.4015E+01
  0.4015E+01
  0.4015E+01
  0.4013E+01
  0.4008E+01
  0.3991E+01
  0.3950E+01
  0.3873E+01
  0.3756E+01
  0.3611E+01
  0.3454E+01
  0.3294E+01
  0.3136E+01
  0.2984E+01
  0.2838E+01
  0.2699E+01
  0.2568E+01
  0.2443E+01
  0.2326E+01
  0.2215E+01
  0.2109E+01
  0.2010E+01
  0.1915E+01
  0.1825E+01
  0.1740E+01
  0.1658E+01
  0.1581E+01
  0.1507E+01
  0.1437E+01
  0.1370E+01
  0.1307E+01
  0.1246E+01
  0.1189E+01
  0.1137E+01
  0.1090E+01
  0.1049E+01
  0.1029E+01
  0.1030E+01
  0.1046E+01
  0.1069E+01
  0.1091E+01
  0.1101E+01
  0.1099E+01
  0.1082E+01
  0.1019E+01
  0.9151E+00
  0.7908E+00
  0.6792E+00
  0.6115E+00
  0.6012E+00
  0.6042E+00
  0.6290E+00
  0.7646E+00
  0.9981E+00
  0.3977E+01
  0.3977E+01
  0.3977E+01
  0.3977E+01
  0.3977E+01
  0.3977E+01
  0.3977E+01
  0.3977E+01
  0.3977E+01
  0.3976E+01
  0.3971E+01
  0.3955E+01
  0.3915E+01
  0.3839E+01
  0.3724E+01
  0.3580E+01
  0.3424E+01
  0.3264E+01
  0.3107E+01
  0.2956E+01
  0.2810E+01
  0.2671E+01
  0.2539E+01
  0.2414E+01
  0.2296E+01
  0.2185E+01
  0.2079E+01
  0.1979E+01
  0.1883E+01
  0.1793E+01
  0.1706E+01
  0.1624E+01
  0.1545E+01
  0.1470E+01
  0.1399E+01
  0.1331E+01
  0.1267E+01
  0.1205E+01
  0.1147E+01
  0.1093E+01
  0.1045E+01
  0.1004E+01
  0.9804E+00
  0.9795E+00
  0.9906E+00
  0.1010E+01
  0.1029E+01
  0.1043E+01
  0.1045E+01
  0.1039E+01
  0.9926E+00
  0.8954E+00
  0.7757E+00
  0.6677E+00
  0.6056E+00
  0.5983E+00
  0.6017E+00
  0.6243E+00
  0.7380E+00
  0.9789E+00
  0.3921E+01
  0.3921E+01
  0.3921E+01
  0.3921E+01
  0.3921E+01
  0.3921E+01
  0.3921E+01
  0.3921E+01
  0.3920E+01
  0.3919E+01
  0.3914E+01
  0.3899E+01
  0.3861E+01
  0.3788E+01
  0.3675E+01
  0.3533E+01
  0.3378E+01
  0.3219E+01
  0.3063E+01
  0.2911E+01
  0.2766E+01
  0.2627E+01
  0.2495E+01
  0.2370E+01
  0.2251E+01
  0.2139E+01
  0.2033E+01
  0.1932E+01
  0.1836E+01
  0.1744E+01
  0.1657E+01
  0.1573E+01
  0.1494E+01
  0.1418E+01
  0.1346E+01
  0.1278E+01
  0.1213E+01
  0.1151E+01
  0.1092E+01
  0.1038E+01
  0.9902E+00
  0.9493E+00
  0.9226E+00
  0.9198E+00
  0.9276E+00
  0.9440E+00
  0.9631E+00
  0.9812E+00
  0.9932E+00
  0.9924E+00
  0.9631E+00
  0.8711E+00
  0.7542E+00
  0.6519E+00
  0.5984E+00
  0.5943E+00
  0.5997E+00
  0.6230E+00
  0.7101E+00
  0.9821E+00
  0.3839E+01
  0.3839E+01
  0.3839E+01
  0.3839E+01
  0.3839E+01
  0.3839E+01
  0.3839E+01
  0.3839E+01
  0.3839E+01
  0.3838E+01
  0.3834E+01
  0.3819E+01
  0.3784E+01
  0.3713E+01
  0.3604E+01
  0.3465E+01
  0.3311E+01
  0.3154E+01
  0.2998E+01
  0.2847E+01
  0.2702E+01
  0.2563E+01
  0.2431E+01
  0.2306E+01
  0.2188E+01
  0.2076E+01
  0.1969E+01
  0.1868E+01
  0.1771E+01
  0.1680E+01
  0.1592E+01
  0.1509E+01
  0.1429E+01
  0.1354E+01
  0.1282E+01
  0.1214E+01
  0.1149E+01
  0.1088E+01
  0.1030E+01
  0.9771E+00
  0.9297E+00
  0.8895E+00
  0.8615E+00
  0.8575E+00
  0.8632E+00
  0.8789E+00
  0.8994E+00
  0.9247E+00
  0.9493E+00
  0.9533E+00
  0.9313E+00
  0.8413E+00
  0.7268E+00
  0.6313E+00
  0.5902E+00
  0.5889E+00
  0.5975E+00
  0.6240E+00
  0.6857E+00
  0.9034E+00
  0.3730E+01
  0.3730E+01
  0.3730E+01
  0.3730E+01
  0.3730E+01
  0.3730E+01
  0.3730E+01
  0.3730E+01
  0.3729E+01
  0.3728E+01
  0.3724E+01
  0.3712E+01
  0.3679E+01
  0.3612E+01
  0.3507E+01
  0.3372E+01
  0.3221E+01
  0.3065E+01
  0.2912E+01
  0.2762E+01
  0.2618E+01
  0.2480E+01
  0.2349E+01
  0.2225E+01
  0.2108E+01
  0.1996E+01
  0.1890E+01
  0.1789E+01
  0.1694E+01
  0.1603E+01
  0.1516E+01
  0.1434E+01
  0.1356E+01
  0.1282E+01
  0.1211E+01
  0.1145E+01
  0.1081E+01
  0.1022E+01
  0.9658E+00
  0.9144E+00
  0.8684E+00
  0.8295E+00
  0.8012E+00
  0.7967E+00
  0.8020E+00
  0.8181E+00
  0.8431E+00
  0.8798E+00
  0.9180E+00
  0.9246E+00
  0.8993E+00
  0.8056E+00
  0.6943E+00
  0.6080E+00
  0.5820E+00
  0.5831E+00
  0.5958E+00
  0.6275E+00
  0.6701E+00
  0.8027E+00
  0.3593E+01
  0.3593E+01
  0.3593E+01
  0.3593E+01
  0.3593E+01
  0.3593E+01
  0.3593E+01
  0.3593E+01
  0.3593E+01
  0.3592E+01
  0.3589E+01
  0.3577E+01
  0.3547E+01
  0.3485E+01
  0.3386E+01
  0.3255E+01
  0.3108E+01
  0.2956E+01
  0.2806E+01
  0.2659E+01
  0.2517E+01
  0.2381E+01
  0.2252E+01
  0.2130E+01
  0.2014E+01
  0.1905E+01
  0.1801E+01
  0.1702E+01
  0.1609E+01
  0.1520E+01
  0.1435E+01
  0.1355E+01
  0.1279E+01
  0.1207E+01
  0.1139E+01
  0.1075E+01
  0.1014E+01
  0.9562E+00
  0.9026E+00
  0.8533E+00
  0.8091E+00
  0.7716E+00
  0.7438E+00
  0.7398E+00
  0.7458E+00
  0.7645E+00
  0.7992E+00
  0.8518E+00
  0.9008E+00
  0.9057E+00
  0.8666E+00
  0.7649E+00
  0.6575E+00
  0.5850E+00
  0.5726E+00
  0.5770E+00
  0.5962E+00
  0.6285E+00
  0.6505E+00
  0.6810E+00
  0.3437E+01
  0.3437E+01
  0.3437E+01
  0.3437E+01
  0.3437E+01
  0.3437E+01
  0.3437E+01
  0.3437E+01
  0.3437E+01
  0.3436E+01
  0.3433E+01
  0.3423E+01
  0.3396E+01
  0.3340E+01
  0.3246E+01
  0.3122E+01
  0.2980E+01
  0.2833E+01
  0.2686E+01
  0.2543E+01
  0.2404E+01
  0.2272E+01
  0.2147E+01
  0.2027E+01
  0.1915E+01
  0.1808E+01
  0.1707E+01
  0.1611E+01
  0.1521E+01
  0.1435E+01
  0.1353E+01
  0.1276E+01
  0.1203E+01
  0.1134E+01
  0.1069E+01
  0.1007E+01
  0.9484E+00
  0.8935E+00
  0.8423E+00
  0.7953E+00
  0.7529E+00
  0.7163E+00
  0.6906E+00
  0.6880E+00
  0.6961E+00
  0.7222E+00
  0.7741E+00
  0.8474E+00
  0.8927E+00
  0.8882E+00
  0.8281E+00
  0.7193E+00
  0.6185E+00
  0.5660E+00
  0.5631E+00
  0.5729E+00
  0.5981E+00
  0.6273E+00
  0.6211E+00
  0.5778E+00
  0.3270E+01
  0.3270E+01
  0.3270E+01
  0.3270E+01
  0.3270E+01
  0.3270E+01
  0.3270E+01
  0.3270E+01
  0.3270E+01
  0.3269E+01
  0.3267E+01
  0.3258E+01
  0.3234E+01
  0.3183E+01
  0.3097E+01
  0.2980E+01
  0.2844E+01
  0.2702E+01
  0.2560E+01
  0.2421E+01
  0.2288E+01
  0.2160E+01
  0.2038E+01
  0.1923E+01
  0.1814E+01
  0.1711E+01
  0.1613E+01
  0.1521E+01
  0.1434E+01
  0.1352E+01
  0.1273E+01
  0.1199E+01
  0.1129E+01
  0.1064E+01
  0.1001E+01
  0.9423E+00
  0.8866E+00
  0.8343E+00
  0.7855E+00
  0.7405E+00
  0.7001E+00
  0.6638E+00
  0.6426E+00
  0.6426E+00
  0.6554E+00
  0.6987E+00
  0.7752E+00
  0.8582E+00
  0.8818E+00
  0.8645E+00
  0.7799E+00
  0.6705E+00
  0.5807E+00
  0.5526E+00
  0.5546E+00
  0.5716E+00
  0.6007E+00
  0.6197E+00
  0.5757E+00
  0.4775E+00
  0.3101E+01
  0.3101E+01
  0.3101E+01
  0.3101E+01
  0.3101E+01
  0.3101E+01
  0.3101E+01
  0.3101E+01
  0.3100E+01
  0.3100E+01
  0.3098E+01
  0.3091E+01
  0.3070E+01
  0.3025E+01
  0.2945E+01
  0.2835E+01
  0.2706E+01
  0.2570E+01
  0.2434E+01
  0.2300E+01
  0.2171E+01
  0.2048E+01
  0.1931E+01
  0.1820E+01
  0.1715E+01
  0.1616E+01
  0.1523E+01
  0.1435E+01
  0.1351E+01
  0.1272E+01
  0.1197E+01
  0.1127E+01
  0.1060E+01
  0.9969E+00
  0.9375E+00
  0.8813E+00
  0.8283E+00
  0.7785E+00
  0.7321E+00
  0.6891E+00
  0.6502E+00
  0.6138E+00
  0.6016E+00
  0.6050E+00
  0.6333E+00
  0.7024E+00
  0.7974E+00
  0.8654E+00
  0.8689E+00
  0.8266E+00
  0.7259E+00
  0.6197E+00
  0.5509E+00
  0.5423E+00
  0.5490E+00
  0.5734E+00
  0.6032E+00
  0.6020E+00
  0.5106E+00
  0.3882E+00
  0.2934E+01
  0.2934E+01
  0.2934E+01
  0.2934E+01
  0.2934E+01
  0.2934E+01
  0.2934E+01
  0.2934E+01
  0.2934E+01
  0.2934E+01
  0.2932E+01
  0.2926E+01
  0.2908E+01
  0.2868E+01
  0.2796E+01
  0.2694E+01
  0.2572E+01
  0.2441E+01
  0.2311E+01
  0.2183E+01
  0.2059E+01
  0.1940E+01
  0.1828E+01
  0.1722E+01
  0.1621E+01
  0.1526E+01
  0.1437E+01
  0.1352E+01
  0.1272E+01
  0.1197E+01
  0.1125E+01
  0.1058E+01
  0.9940E+00
  0.9340E+00
  0.8774E+00
  0.8239E+00
  0.7734E+00
  0.7261E+00
  0.6817E+00
  0.6408E+00
  0.6019E+00
  0.5706E+00
  0.5672E+00
  0.5834E+00
  0.6388E+00
  0.7298E+00
  0.8284E+00
  0.8611E+00
  0.8486E+00
  0.7747E+00
  0.6661E+00
  0.5707E+00
  0.5325E+00
  0.5333E+00
  0.5489E+00
  0.5791E+00
  0.6000E+00
  0.5711E+00
  0.4323E+00
  0.3201E+00
  0.2774E+01
  0.2774E+01
  0.2774E+01
  0.2774E+01
  0.2774E+01
  0.2774E+01
  0.2774E+01
  0.2774E+01
  0.2774E+01
  0.2774E+01
  0.2772E+01
  0.2767E+01
  0.2752E+01
  0.2717E+01
  0.2652E+01
  0.2557E+01
  0.2442E+01
  0.2318E+01
  0.2193E+01
  0.2070E+01
  0.1951E+01
  0.1837E+01
  0.1730E+01
  0.1627E+01
  0.1531E+01
  0.1440E+01
  0.1354E+01
  0.1274E+01
  0.1197E+01
  0.1125E+01
  0.1057E+01
  0.9925E+00
  0.9319E+00
  0.8747E+00
  0.8208E+00
  0.7699E+00
  0.7218E+00
  0.6768E+00
  0.6344E+00
  0.5947E+00
  0.5548E+00
  0.5392E+00
  0.5466E+00
  0.5897E+00
  0.6701E+00
  0.7743E+00
  0.8460E+00
  0.8500E+00
  0.8101E+00
  0.7102E+00
  0.6030E+00
  0.5331E+00
  0.5234E+00
  0.5301E+00
  0.5543E+00
  0.5836E+00
  0.5853E+00
  0.5094E+00
  0.3617E+00
  0.2689E+00
  0.2621E+01
  0.2621E+01
  0.2621E+01
  0.2621E+01
  0.2621E+01
  0.2621E+01
  0.2621E+01
  0.2621E+01
  0.2621E+01
  0.2621E+01
  0.2620E+01
  0.2615E+01
  0.2603E+01
  0.2572E+01
  0.2514E+01
  0.2426E+01
  0.2318E+01
  0.2200E+01
  0.2080E+01
  0.1962E+01
  0.1849E+01
  0.1740E+01
  0.1636E+01
  0.1538E+01
  0.1446E+01
  0.1359E+01
  0.1277E+01
  0.1200E+01
  0.1127E+01
  0.1058E+01
  0.9925E+00
  0.9312E+00
  0.8734E+00
  0.8189E+00
  0.7676E+00
  0.7191E+00
  0.6735E+00
  0.6302E+00
  0.5896E+00
  0.5483E+00
  0.5203E+00
  0.5225E+00
  0.5531E+00
  0.6220E+00
  0.7208E+00
  0.8189E+00
  0.8449E+00
  0.8276E+00
  0.7443E+00
  0.6345E+00
  0.5452E+00
  0.5151E+00
  0.5168E+00
  0.5327E+00
  0.5627E+00
  0.5814E+00
  0.5541E+00
  0.4285E+00
  0.3043E+00
  0.2344E+00
  0.2475E+01
  0.2475E+01
  0.2475E+01
  0.2475E+01
  0.2475E+01
  0.2475E+01
  0.2475E+01
  0.2475E+01
  0.2475E+01
  0.2475E+01
  0.2474E+01
  0.2471E+01
  0.2460E+01
  0.2434E+01
  0.2382E+01
  0.2301E+01
  0.2200E+01
  0.2088E+01
  0.1973E+01
  0.1861E+01
  0.1751E+01
  0.1647E+01
  0.1548E+01
  0.1454E+01
  0.1365E+01
  0.1282E+01
  0.1203E+01
  0.1130E+01
  0.1060E+01
  0.9940E+00
  0.9319E+00
  0.8734E+00
  0.8183E+00
  0.7664E+00
  0.7175E+00
  0.6715E+00
  0.6276E+00
  0.5863E+00
  0.5453E+00
  0.5091E+00
  0.5069E+00
  0.5293E+00
  0.5873E+00
  0.6757E+00
  0.7812E+00
  0.8341E+00
  0.8281E+00
  0.7664E+00
  0.6566E+00
  0.5593E+00
  0.5105E+00
  0.5078E+00
  0.5167E+00
  0.5427E+00
  0.5681E+00
  0.5647E+00
  0.4868E+00
  0.3551E+00
  0.2610E+00
  0.2144E+00
  0.2337E+01
  0.2337E+01
  0.2337E+01
  0.2337E+01
  0.2337E+01
  0.2337E+01
  0.2337E+01
  0.2337E+01
  0.2337E+01
  0.2337E+01
  0.2336E+01
  0.2334E+01
  0.2325E+01
  0.2302E+01
  0.2256E+01
  0.2183E+01
  0.2088E+01
  0.1981E+01
  0.1872E+01
  0.1764E+01
  0.1659E+01
  0.1559E+01
  0.1464E+01
  0.1374E+01
  0.1289E+01
  0.1209E+01
  0.1134E+01
  0.1064E+01
  0.9969E+00
  0.9340E+00
  0.8747E+00
  0.8189E+00
  0.7664E+00
  0.7170E+00
  0.6706E+00
  0.6263E+00
  0.5844E+00
  0.5427E+00
  0.5037E+00
  0.4989E+00
  0.5129E+00
  0.5627E+00
  0.6432E+00
  0.7479E+00
  0.8209E+00
  0.8236E+00
  0.7746E+00
  0.6679E+00
  0.5672E+00
  0.5084E+00
  0.5001E+00
  0.5058E+00
  0.5269E+00
  0.5540E+00
  0.5628E+00
  0.5215E+00
  0.4034E+00
  0.2968E+00
  0.2308E+00
  0.2049E+00
  0.2206E+01
  0.2206E+01
  0.2206E+01
  0.2206E+01
  0.2206E+01
  0.2206E+01
  0.2206E+01
  0.2206E+01
  0.2206E+01
  0.2206E+01
  0.2206E+01
  0.2203E+01
  0.2196E+01
  0.2177E+01
  0.2136E+01
  0.2070E+01
  0.1981E+01
  0.1880E+01
  0.1776E+01
  0.1673E+01
  0.1572E+01
  0.1476E+01
  0.1385E+01
  0.1298E+01
  0.1217E+01
  0.1141E+01
  0.1069E+01
  0.1001E+01
  0.9374E+00
  0.8773E+00
  0.8208E+00
  0.7676E+00
  0.7175E+00
  0.6705E+00
  0.6259E+00
  0.5835E+00
  0.5416E+00
  0.5000E+00
  0.4937E+00
  0.5037E+00
  0.5436E+00
  0.6112E+00
  0.7125E+00
  0.8040E+00
  0.8148E+00
  0.7768E+00
  0.6715E+00
  0.5691E+00
  0.5070E+00
  0.4956E+00
  0.4989E+00
  0.5149E+00
  0.5408E+00
  0.5548E+00
  0.5353E+00
  0.4427E+00
  0.3324E+00
  0.2537E+00
  0.2126E+00
  0.2013E+00
  0.2082E+01
  0.2082E+01
  0.2082E+01
  0.2082E+01
  0.2082E+01
  0.2082E+01
  0.2082E+01
  0.2082E+01
  0.2082E+01
  0.2082E+01
  0.2082E+01
  0.2080E+01
  0.2074E+01
  0.2058E+01
  0.2022E+01
  0.1962E+01
  0.1879E+01
  0.1784E+01
  0.1685E+01
  0.1586E+01
  0.1490E+01
  0.1397E+01
  0.1310E+01
  0.1227E+01
  0.1149E+01
  0.1076E+01
  0.1007E+01
  0.9422E+00
  0.8813E+00
  0.8239E+00
  0.7698E+00
  0.7191E+00
  0.6715E+00
  0.6263E+00
  0.5834E+00
  0.5415E+00
  0.4998E+00
  0.4907E+00
  0.4985E+00
  0.5362E+00
  0.5967E+00
  0.6840E+00
  0.7771E+00
  0.8035E+00
  0.7737E+00
  0.6727E+00
  0.5686E+00
  0.5056E+00
  0.4942E+00
  0.4957E+00
  0.5072E+00
  0.5307E+00
  0.5453E+00
  0.5364E+00
  0.4682E+00
  0.3628E+00
  0.2779E+00
  0.2250E+00
  0.2040E+00
  0.2003E+00
  0.1964E+01
  0.1964E+01
  0.1964E+01
  0.1964E+01
  0.1964E+01
  0.1964E+01
  0.1964E+01
  0.1964E+01
  0.1964E+01
  0.1964E+01
  0.1964E+01
  0.1963E+01
  0.1958E+01
  0.1944E+01
  0.1913E+01
  0.1859E+01
  0.1783E+01
  0.1693E+01
  0.1598E+01
  0.1504E+01
  0.1412E+01
  0.1323E+01
  0.1239E+01
  0.1159E+01
  0.1085E+01
  0.1014E+01
  0.9485E+00
  0.8866E+00
  0.8283E+00
  0.7734E+00
  0.7218E+00
  0.6734E+00
  0.6276E+00
  0.5843E+00
  0.5418E+00
  0.5003E+00
  0.4900E+00
  0.4963E+00
  0.5275E+00
  0.5860E+00
  0.6750E+00
  0.7716E+00
  0.7956E+00
  0.7717E+00
  0.6753E+00
  0.5704E+00
  0.5070E+00
  0.4951E+00
  0.4955E+00
  0.5037E+00
  0.5240E+00
  0.5387E+00
  0.5347E+00
  0.4819E+00
  0.3854E+00
  0.2995E+00
  0.2395E+00
  0.2091E+00
  0.2009E+00
  0.2000E+00
  0.1853E+01
  0.1853E+01
  0.1853E+01
  0.1853E+01
  0.1853E+01
  0.1853E+01
  0.1853E+01
  0.1853E+01
  0.1853E+01
  0.1853E+01
  0.1853E+01
  0.1852E+01
  0.1848E+01
  0.1837E+01
  0.1810E+01
  0.1761E+01
  0.1691E+01
  0.1607E+01
  0.1517E+01
  0.1426E+01
  0.1338E+01
  0.1253E+01
  0.1172E+01
  0.1096E+01
  0.1024E+01
  0.9568E+00
  0.8936E+00
  0.8342E+00
  0.7784E+00
  0.7260E+00
  0.6767E+00
  0.6302E+00
  0.5863E+00
  0.5428E+00
  0.5011E+00
  0.4906E+00
  0.4968E+00
  0.5249E+00
  0.5722E+00
  0.6508E+00
  0.7597E+00
  0.7979E+00
  0.7801E+00
  0.6870E+00
  0.5768E+00
  0.5116E+00
  0.4985E+00
  0.4976E+00
  0.5040E+00
  0.5213E+00
  0.5351E+00
  0.5329E+00
  0.4897E+00
  0.4012E+00
  0.3166E+00
  0.2535E+00
  0.2162E+00
  0.2025E+00
  0.2002E+00
  0.2000E+00
  0.1749E+01
  0.1749E+01
  0.1749E+01
  0.1749E+01
  0.1749E+01
  0.1749E+01
  0.1749E+01
  0.1749E+01
  0.1749E+01
  0.1748E+01
  0.1748E+01
  0.1748E+01
  0.1744E+01
  0.1735E+01
  0.1712E+01
  0.1669E+01
  0.1605E+01
  0.1526E+01
  0.1440E+01
  0.1354E+01
  0.1269E+01
  0.1187E+01
  0.1110E+01
  0.1037E+01
  0.9676E+00
  0.9029E+00
  0.8423E+00
  0.7855E+00
  0.7321E+00
  0.6817E+00
  0.6344E+00
  0.5897E+00
  0.5447E+00
  0.5036E+00
  0.4923E+00
  0.4986E+00
  0.5279E+00
  0.5757E+00
  0.6461E+00
  0.7384E+00
  0.7887E+00
  0.7796E+00
  0.6979E+00
  0.5872E+00
  0.5197E+00
  0.5045E+00
  0.5022E+00
  0.5071E+00
  0.5214E+00
  0.5337E+00
  0.5317E+00
  0.4937E+00
  0.4110E+00
  0.3288E+00
  0.2652E+00
  0.2237E+00
  0.2050E+00
  0.2005E+00
  0.2000E+00
  0.2000E+00
  0.1652E+01
  0.1652E+01
  0.1652E+01
  0.1652E+01
  0.1652E+01
  0.1652E+01
  0.1652E+01
  0.1652E+01
  0.1652E+01
  0.1652E+01
  0.1652E+01
  0.1651E+01
  0.1649E+01
  0.1641E+01
  0.1621E+01
  0.1583E+01
  0.1525E+01
  0.1450E+01
  0.1369E+01
  0.1287E+01
  0.1205E+01
  0.1127E+01
  0.1053E+01
  0.9820E+00
  0.9157E+00
  0.8535E+00
  0.7952E+00
  0.7405E+00
  0.6890E+00
  0.6407E+00
  0.5947E+00
  0.5486E+00
  0.5099E+00
  0.4968E+00
  0.5038E+00
  0.5340E+00
  0.5821E+00
  0.6538E+00
  0.7452E+00
  0.7896E+00
  0.7798E+00
  0.7039E+00
  0.5957E+00
  0.5279E+00
  0.5114E+00
  0.5084E+00
  0.5121E+00
  0.5235E+00
  0.5340E+00
  0.5316E+00
  0.4958E+00
  0.4165E+00
  0.3367E+00
  0.2737E+00
  0.2305E+00
  0.2080E+00
  0.2011E+00
  0.2001E+00
  0.2000E+00
  0.2000E+00
  0.1564E+01
  0.1564E+01
  0.1564E+01
  0.1564E+01
  0.1564E+01
  0.1564E+01
  0.1564E+01
  0.1564E+01
  0.1564E+01
  0.1564E+01
  0.1564E+01
  0.1564E+01
  0.1562E+01
  0.1556E+01
  0.1539E+01
  0.1506E+01
  0.1452E+01
  0.1383E+01
  0.1306E+01
  0.1227E+01
  0.1149E+01
  0.1073E+01
  0.1001E+01
  0.9334E+00
  0.8693E+00
  0.8092E+00
  0.7529E+00
  0.7000E+00
  0.6501E+00
  0.6020E+00
  0.5542E+00
  0.5201E+00
  0.5062E+00
  0.5136E+00
  0.5452E+00
  0.5962E+00
  0.6671E+00
  0.7506E+00
  0.7898E+00
  0.7808E+00
  0.7113E+00
  0.6031E+00
  0.5334E+00
  0.5166E+00
  0.5139E+00
  0.5170E+00
  0.5269E+00
  0.5357E+00
  0.5324E+00
  0.4966E+00
  0.4189E+00
  0.3413E+00
  0.2794E+00
  0.2358E+00
  0.2110E+00
  0.2019E+00
  0.2002E+00
  0.2000E+00
  0.2000E+00
  0.2000E+00
  0.1489E+01
  0.1489E+01
  0.1489E+01
  0.1489E+01
  0.1489E+01
  0.1489E+01
  0.1489E+01
  0.1489E+01
  0.1489E+01
  0.1489E+01
  0.1489E+01
  0.1489E+01
  0.1487E+01
  0.1482E+01
  0.1468E+01
  0.1438E+01
  0.1390E+01
  0.1325E+01
  0.1251E+01
  0.1176E+01
  0.1101E+01
  0.1028E+01
  0.9583E+00
  0.8923E+00
  0.8302E+00
  0.7716E+00
  0.7163E+00
  0.6638E+00
  0.6135E+00
  0.5706E+00
  0.5402E+00
  0.5221E+00
  0.5295E+00
  0.5615E+00
  0.6142E+00
  0.6896E+00
  0.7698E+00
  0.7943E+00
  0.7789E+00
  0.7079E+00
  0.6056E+00
  0.5367E+00
  0.5191E+00
  0.5174E+00
  0.5202E+00
  0.5297E+00
  0.5381E+00
  0.5344E+00
  0.4980E+00
  0.4201E+00
  0.3430E+00
  0.2826E+00
  0.2394E+00
  0.2135E+00
  0.2028E+00
  0.2003E+00
  0.2000E+00
  0.2000E+00
  0.2000E+00
  0.2000E+00
  0.1433E+01
  0.1433E+01
  0.1433E+01
  0.1433E+01
  0.1433E+01
  0.1433E+01
  0.1433E+01
  0.1433E+01
  0.1433E+01
  0.1433E+01
  0.1433E+01
  0.1433E+01
  0.1431E+01
  0.1428E+01
  0.1416E+01
  0.1391E+01
  0.1348E+01
  0.1288E+01
  0.1218E+01
  0.1144E+01
  0.1071E+01
  0.9985E+00
  0.9293E+00
  0.8635E+00
  0.8016E+00
  0.7438E+00
  0.6906E+00
  0.6425E+00
  0.6020E+00
  0.5670E+00
  0.5464E+00
  0.5541E+00
  0.5872E+00
  0.6399E+00
  0.7126E+00
  0.7855E+00
  0.7991E+00
  0.7786E+00
  0.6973E+00
  0.5993E+00
  0.5357E+00
  0.5196E+00
  0.5187E+00
  0.5216E+00
  0.5310E+00
  0.5394E+00
  0.5361E+00
  0.4996E+00
  0.4215E+00
  0.3443E+00
  0.2841E+00
  0.2415E+00
  0.2154E+00
  0.2036E+00
  0.2005E+00
  0.2000E+00
  0.2000E+00
  0.2000E+00
  0.2000E+00
  0.2000E+00
  0.1424E+01
  0.1424E+01
  0.1424E+01
  0.1424E+01
  0.1424E+01
  0.1424E+01
  0.1424E+01
  0.1424E+01
  0.1424E+01
  0.1424E+01
  0.1424E+01
  0.1424E+01
  0.1423E+01
  0.1419E+01
  0.1409E+01
  0.1386E+01
  0.1345E+01
  0.1286E+01
  0.1216E+01
  0.1142E+01
  0.1068E+01
  0.9955E+00
  0.9256E+00
  0.8592E+00
  0.7971E+00
  0.7398E+00
  0.6880E+00
  0.6426E+00
  0.6049E+00
  0.5826E+00
  0.5898E+00
  0.6222E+00
  0.6762E+00
  0.7462E+00
  0.8006E+00
  0.8030E+00
  0.7772E+00
  0.6865E+00
  0.5879E+00
  0.5300E+00
  0.5172E+00
  0.5180E+00
  0.5221E+00
  0.5319E+00
  0.5400E+00
  0.5368E+00
  0.5003E+00
  0.4218E+00
  0.3447E+00
  0.2848E+00
  0.2425E+00
  0.2165E+00
  0.2043E+00
  0.2007E+00
  0.2001E+00
  0.2000E+00
  0.2000E+00
  0.2000E+00
  0.2000E+00
  0.2000E+00
  0.1432E+01
  0.1432E+01
  0.1432E+01
  0.1432E+01
  0.1432E+01
  0.1432E+01
  0.1432E+01
  0.1432E+01
  0.1432E+01
  0.1432E+01
  0.1432E+01
  0.1432E+01
  0.1431E+01
  0.1429E+01
  0.1420E+01
  0.1400E+01
  0.1361E+01
  0.1304E+01
  0.1233E+01
  0.1157E+01
  0.1079E+01
  0.1004E+01
  0.9320E+00
  0.8644E+00
  0.8022E+00
  0.7458E+00
  0.6960E+00
  0.6553E+00
  0.6325E+00
  0.6392E+00
  0.6697E+00
  0.7206E+00
  0.7812E+00
  0.8195E+00
  0.8125E+00
  0.7741E+00
  0.6776E+00
  0.5779E+00
  0.5206E+00
  0.5108E+00
  0.5142E+00
  0.5209E+00
  0.5321E+00
  0.5405E+00
  0.5373E+00
  0.5002E+00
  0.4217E+00
  0.3448E+00
  0.2849E+00
  0.2430E+00
  0.2170E+00
  0.2047E+00
  0.2008E+00
  0.2001E+00
  0.2000E+00
  0.2000E+00
  0.2000E+00
  0.2000E+00
  0.2000E+00
  0.2000E+00
  0.1451E+01
  0.1451E+01
  0.1451E+01
  0.1451E+01
  0.1451E+01
  0.1451E+01
  0.1451E+01
  0.1451E+01
  0.1451E+01
  0.1451E+01
  0.1451E+01
  0.1451E+01
  0.1450E+01
  0.1448E+01
  0.1440E+01
  0.1422E+01
  0.1385E+01
  0.1329E+01
  0.1257E+01
  0.1179E+01
  0.1099E+01
  0.1021E+01
  0.9477E+00
  0.8799E+00
  0.8183E+00
  0.7645E+00
  0.7221E+00
  0.6983E+00
  0.7032E+00
  0.7297E+00
  0.7734E+00
  0.8193E+00
  0.8354E+00
  0.8229E+00
  0.7751E+00
  0.6727E+00
  0.5704E+00
  0.5128E+00
  0.5042E+00
  0.5085E+00
  0.5169E+00
  0.5301E+00
  0.5402E+00
  0.5376E+00
  0.5009E+00
  0.4219E+00
  0.3447E+00
  0.2849E+00
  0.2430E+00
  0.2172E+00
  0.2048E+00
  0.2009E+00
  0.2001E+00
  0.2000E+00
  0.2000E+00
  0.2000E+00
  0.2000E+00
  0.2000E+00
  0.2000E+00
  0.2000E+00
  0.1470E+01
  0.1470E+01
  0.1470E+01
  0.1470E+01
  0.1470E+01
  0.1470E+01
  0.1470E+01
  0.1470E+01
  0.1470E+01
  0.1470E+01
  0.1470E+01
  0.1470E+01
  0.1469E+01
  0.1467E+01
  0.1461E+01
  0.1443E+01
  0.1408E+01
  0.1352E+01
  0.1279E+01
  0.1199E+01
  0.1117E+01
  0.1039E+01
  0.9662E+00
  0.9002E+00
  0.8433E+00
  0.7992E+00
  0.7738E+00
  0.7758E+00
  0.7966E+00
  0.8285E+00
  0.8468E+00
  0.8441E+00
  0.8293E+00
  0.7741E+00
  0.6716E+00
  0.5683E+00
  0.5071E+00
  0.4984E+00
  0.5025E+00
  0.5119E+00
  0.5265E+00
  0.5380E+00
  0.5366E+00
  0.5013E+00
  0.4222E+00
  0.3449E+00
  0.2849E+00
  0.2430E+00
  0.2172E+00
  0.2049E+00
  0.2009E+00
  0.2001E+00
  0.2000E+00
  0.2000E+00
  0.2000E+00
  0.2000E+00
  0.2000E+00
  0.2000E+00
  0.2000E+00
  0.2000E+00
  0.1477E+01
  0.1477E+01
  0.1477E+01
  0.1477E+01
  0.1477E+01
  0.1477E+01
  0.1477E+01
  0.1477E+01
  0.1477E+01
  0.1477E+01
  0.1477E+01
  0.1477E+01
  0.1476E+01
  0.1474E+01
  0.1467E+01
  0.1450E+01
  0.1415E+01
  0.1359E+01
  0.1286E+01
  0.1207E+01
  0.1128E+01
  0.1053E+01
  0.9844E+00
  0.9255E+00
  0.8799E+00
  0.8518E+00
  0.8471E+00
  0.8579E+00
  0.8654E+00
  0.8604E+00
  0.8507E+00
  0.8275E+00
  0.7656E+00
  0.6677E+00
  0.5687E+00
  0.5057E+00
  0.4952E+00
  0.4977E+00
  0.5073E+00
  0.5233E+00
  0.5355E+00
  0.5343E+00
  0.4997E+00
  0.4220E+00
  0.3450E+00
  0.2850E+00
  0.2430E+00
  0.2172E+00
  0.2049E+00
  0.2009E+00
  0.2001E+00
  0.2000E+00
  0.2000E+00
  0.2000E+00
  0.2000E+00
  0.2000E+00
  0.2000E+00
  0.2000E+00
  0.2000E+00
  0.2000E+00
  0.1473E+01
  0.1473E+01
  0.1473E+01
  0.1473E+01
  0.1473E+01
  0.1473E+01
  0.1473E+01
  0.1473E+01
  0.1473E+01
  0.1473E+01
  0.1473E+01
  0.1473E+01
  0.1472E+01
  0.1470E+01
  0.1463E+01
  0.1446E+01
  0.1410E+01
  0.1354E+01
  0.1283E+01
  0.1205E+01
  0.1127E+01
  0.1057E+01
  0.9971E+00
  0.9504E+00
  0.9183E+00
  0.9008E+00
  0.8924E+00
  0.8816E+00
  0.8690E+00
  0.8487E+00
  0.8100E+00
  0.7444E+00
  0.6563E+00
  0.5670E+00
  0.5063E+00
  0.4942E+00
  0.4955E+00
  0.5044E+00
  0.5214E+00
  0.5339E+00
  0.5324E+00
  0.4979E+00
  0.4210E+00
  0.3446E+00
  0.2849E+00
  0.2430E+00
  0.2172E+00
  0.2049E+00
  0.2009E+00
  0.2001E+00
  0.2000E+00
  0.2000E+00
  0.2000E+00
  0.2000E+00
  0.2000E+00
  0.2000E+00
  0.2000E+00
  0.2000E+00
  0.2000E+00
  0.2000E+00
  0.1441E+01
  0.1441E+01
  0.1441E+01
  0.1441E+01
  0.1441E+01
  0.1441E+01
  0.1441E+01
  0.1441E+01
  0.1441E+01
  0.1441E+01
  0.1441E+01
  0.1441E+01
  0.1440E+01
  0.1436E+01
  0.1428E+01
  0.1409E+01
  0.1373E+01
  0.1319E+01
  0.1252E+01
  0.1182E+01
  0.1114E+01
  0.1052E+01
  0.9972E+00
  0.9548E+00
  0.9250E+00
  0.9056E+00
  0.8881E+00
  0.8644E+00
  0.8265E+00
  0.7751E+00
  0.7105E+00
  0.6342E+00
  0.5592E+00
  0.5084E+00
  0.4956E+00
  0.4958E+00
  0.5041E+00
  0.5218E+00
  0.5340E+00
  0.5317E+00
  0.4965E+00
  0.4199E+00
  0.3442E+00
  0.2847E+00
  0.2429E+00
  0.2171E+00
  0.2049E+00
  0.2009E+00
  0.2001E+00
  0.2000E+00
  0.2000E+00
  0.2000E+00
  0.2000E+00
  0.2000E+00
  0.2000E+00
  0.2000E+00
  0.2000E+00
  0.2000E+00
  0.2000E+00
  0.2000E+00
  0.1343E+01
  0.1343E+01
  0.1343E+01
  0.1343E+01
  0.1343E+01
  0.1343E+01
  0.1343E+01
  0.1343E+01
  0.1343E+01
  0.1343E+01
  0.1343E+01
  0.1343E+01
  0.1341E+01
  0.1336E+01
  0.1326E+01
  0.1306E+01
  0.1271E+01
  0.1224E+01
  0.1168E+01
  0.1111E+01
  0.1057E+01
  0.1011E+01
  0.9714E+00
  0.9344E+00
  0.9003E+00
  0.8669E+00
  0.8279E+00
  0.7799E+00
  0.7259E+00
  0.6663E+00
  0.6032E+00
  0.5452E+00
  0.5106E+00
  0.5003E+00
  0.4989E+00
  0.5070E+00
  0.5248E+00
  0.5359E+00
  0.5322E+00
  0.4963E+00
  0.4188E+00
  0.3429E+00
  0.2841E+00
  0.2426E+00
  0.2170E+00
  0.2048E+00
  0.2009E+00
  0.2001E+00
  0.2000E+00
  0.2000E+00
  0.2000E+00
  0.2000E+00
  0.2000E+00
  0.2000E+00
  0.2000E+00
  0.2000E+00
  0.2000E+00
  0.2000E+00
  0.2000E+00
  0.2000E+00
  0.1190E+01
  0.1190E+01
  0.1190E+01
  0.1190E+01
  0.1190E+01
  0.1190E+01
  0.1190E+01
  0.1190E+01
  0.1190E+01
  0.1190E+01
  0.1189E+01
  0.1189E+01
  0.1186E+01
  0.1180E+01
  0.1169E+01
  0.1148E+01
  0.1119E+01
  0.1081E+01
  0.1040E+01
  0.9976E+00
  0.9568E+00
  0.9180E+00
  0.8824E+00
  0.8462E+00
  0.8074E+00
  0.7655E+00
  0.7193E+00
  0.6704E+00
  0.6199E+00
  0.5709E+00
  0.5328E+00
  0.5153E+00
  0.5074E+00
  0.5057E+00
  0.5143E+00
  0.5308E+00
  0.5401E+00
  0.5335E+00
  0.4942E+00
  0.4172E+00
  0.3414E+00
  0.2826E+00
  0.2416E+00
  0.2165E+00
  0.2047E+00
  0.2009E+00
  0.2001E+00
  0.2000E+00
  0.2000E+00
  0.2000E+00
  0.2000E+00
  0.2000E+00
  0.2000E+00
  0.2000E+00
  0.2000E+00
  0.2000E+00
  0.2000E+00
  0.2000E+00
  0.2000E+00
  0.2000E+00
  0.1015E+01
  0.1015E+01
  0.1015E+01
  0.1015E+01
  0.1015E+01
  0.1015E+01
  0.1015E+01
  0.1015E+01
  0.1015E+01
  0.1015E+01
  0.1015E+01
  0.1014E+01
  0.1011E+01
  0.1004E+01
  0.9916E+00
  0.9733E+00
  0.9496E+00
  0.9225E+00
  0.8934E+00
  0.8634E+00
  0.8326E+00
  0.8008E+00
  0.7677E+00
  0.7334E+00
  0.6970E+00
  0.6584E+00
  0.6187E+00
  0.5810E+00
  0.5508E+00
  0.5331E+00
  0.5233E+00
  0.5169E+00
  0.5170E+00
  0.5260E+00
  0.5401E+00
  0.5461E+00
  0.5362E+00
  0.4896E+00
  0.4112E+00
  0.3369E+00
  0.2795E+00
  0.2395E+00
  0.2154E+00
  0.2043E+00
  0.2008E+00
  0.2001E+00
  0.2000E+00
  0.2000E+00
  0.2000E+00
  0.2000E+00
  0.2000E+00
  0.2000E+00
  0.2000E+00
  0.2000E+00
  0.2000E+00
  0.2000E+00
  0.2000E+00
  0.2000E+00
  0.2000E+00
  0.2000E+00
  0.8650E+00
  0.8650E+00
  0.8650E+00
  0.8650E+00
  0.8650E+00
  0.8650E+00
  0.8650E+00
  0.8650E+00
  0.8649E+00
  0.8648E+00
  0.8643E+00
  0.8627E+00
  0.8590E+00
  0.8516E+00
  0.8397E+00
  0.8239E+00
  0.8058E+00
  0.7863E+00
  0.7654E+00
  0.7428E+00
  0.7187E+00
  0.6933E+00
  0.6668E+00
  0.6390E+00
  0.6115E+00
  0.5865E+00
  0.5664E+00
  0.5527E+00
  0.5422E+00
  0.5339E+00
  0.5296E+00
  0.5331E+00
  0.5424E+00
  0.5536E+00
  0.5531E+00
  0.5378E+00
  0.4820E+00
  0.4014E+00
  0.3286E+00
  0.2736E+00
  0.2357E+00
  0.2135E+00
  0.2036E+00
  0.2007E+00
  0.2001E+00
  0.2000E+00
  0.2000E+00
  0.2000E+00
  0.2000E+00
  0.2000E+00
  0.2000E+00
  0.2000E+00
  0.2000E+00
  0.2000E+00
  0.2000E+00
  0.2000E+00
  0.2000E+00
  0.2000E+00
  0.2000E+00
  0.2000E+00
  0.7691E+00
  0.7691E+00
  0.7691E+00
  0.7691E+00