# vtk DataFile Version 3.0
vtk output
ASCII
DATASET RECTILINEAR_GRID
DIMENSIONS          61          61 1
X_COORDINATES    61 double
  0.0000E+00
  0.1667E+00
  0.3333E+00
  0.5000E+00
  0.6667E+00
  0.8333E+00
  0.1000E+01
  0.1167E+01
  0.1333E+01
  0.1500E+01
  0.1667E+01
  0.1833E+01
  0.2000E+01
  0.2167E+01
  0.2333E+01
  0.2500E+01
  0.2667E+01
  0.2833E+01
  0.3000E+01
  0.3167E+01
  0.3333E+01
  0.3500E+01
  0.3667E+01
  0.3833E+01
  0.4000E+01
  0.4167E+01
  0.4333E+01
  0.4500E+01
  0.4667E+01
  0.4833E+01
  0.5000E+01
  0.5167E+01
  0.5333E+01
  0.5500E+01
  0.5667E+01
  0.5833E+01
  0.6000E+01
  0.6167E+01
  0.6333E+01
  0.6500E+01
  0.6667E+01
  0.6833E+01
  0.7000E+01
  0.7167E+01
  0.7333E+01
  0.7500E+01
  0.7667E+01
  0.7833E+01
  0.8000E+01
  0.8167E+01
  0.8333E+01
  0.8500E+01
  0.8667E+01
  0.8833E+01
  0.9000E+01
  0.9167E+01
  0.9333E+01
  0.9500E+01
  0.9667E+01
  0.9833E+01
  0.1000E+02
Y_COORDINATES    61 double
  0.0000E+00
  0.1667E+00
  0.3333E+00
  0.5000E+00
  0.6667E+00
  0.8333E+00
  0.1000E+01
  0.1167E+01
  0.1333E+01
  0.1500E+01
  0.1667E+01
  0.1833E+01
  0.2000E+01
  0.2167E+01
  0.2333E+01
  0.2500E+01
  0.2667E+01
  0.2833E+01
  0.3000E+01
  0.3167E+01
  0.3333E+01
  0.3500E+01
  0.3667E+01
  0.3833E+01
  0.4000E+01
  0.4167E+01
  0.4333E+01
  0.4500E+01
  0.4667E+01
  0.4833E+01
  0.5000E+01
  0.5167E+01
  0.5333E+01
  0.5500E+01
  0.5667E+01
  0.5833E+01
  0.6000E+01
  0.6167E+01
  0.6333E+01
  0.6500E+01
  0.6667E+01
  0.6833E+01
  0.7000E+01
  0.7167E+01
  0.7333E+01
  0.7500E+01
  0.7667E+01
  0.7833E+01
  0.8000E+01
  0.8167E+01
  0.8333E+01
  0.8500E+01
  0.8667E+01
  0.8833E+01
  0.9000E+01
  0.9167E+01
  0.9333E+01
  0.9500E+01
  0.9667E+01
  0.9833E+01
  0.1000E+02
Z_COORDINATES 1 double
0
CELL_DATA                 3600
FIELD FieldData 4
density 1                 3600 double
  0.3223E+01
  0.3223E+01
  0.3223E+01
  0.3223E+01
  0.3223E+01
  0.3223E+01
  0.3222E+01
  0.3220E+01
  0.3212E+01
  0.3191E+01
  0.3149E+01
  0.3080E+01
  0.2986E+01
  0.2879E+01
  0.2765E+01
  0.2651E+01
  0.2539E+01
  0.2431E+01
  0.2326E+01
  0.2225E+01
  0.2129E+01
  0.2037E+01
  0.1950E+01
  0.1867E+01
  0.1788E+01
  0.1713E+01
  0.1641E+01
  0.1573E+01
  0.1508E+01
  0.1446E+01
  0.1387E+01
  0.1330E+01
  0.1276E+01
  0.1225E+01
  0.1176E+01
  0.1129E+01
  0.1084E+01
  0.1042E+01
  0.1003E+01
  0.9650E+00
  0.9297E+00
  0.8968E+00
  0.8681E+00
  0.8445E+00
  0.8352E+00
  0.8367E+00
  0.8501E+00
  0.8731E+00
  0.8966E+00
  0.9153E+00
  0.9250E+00
  0.9278E+00
  0.9294E+00
  0.9231E+00
  0.8777E+00
  0.8162E+00
  0.8476E+00
  0.1027E+01
  0.1363E+01
  0.1416E+01
  0.3220E+01
  0.3220E+01
  0.3220E+01
  0.3220E+01
  0.3220E+01
  0.3220E+01
  0.3219E+01
  0.3216E+01
  0.3208E+01
  0.3188E+01
  0.3146E+01
  0.3077E+01
  0.2984E+01
  0.2876E+01
  0.2763E+01
  0.2649E+01
  0.2537E+01
  0.2428E+01
  0.2323E+01
  0.2223E+01
  0.2126E+01
  0.2035E+01
  0.1947E+01
  0.1864E+01
  0.1785E+01
  0.1710E+01
  0.1639E+01
  0.1571E+01
  0.1506E+01
  0.1444E+01
  0.1384E+01
  0.1328E+01
  0.1274E+01
  0.1222E+01
  0.1173E+01
  0.1126E+01
  0.1082E+01
  0.1040E+01
  0.1000E+01
  0.9623E+00
  0.9268E+00
  0.8938E+00
  0.8649E+00
  0.8410E+00
  0.8316E+00
  0.8328E+00
  0.8448E+00
  0.8675E+00
  0.8910E+00
  0.9097E+00
  0.9211E+00
  0.9267E+00
  0.9299E+00
  0.9245E+00
  0.8800E+00
  0.8147E+00
  0.8444E+00
  0.1025E+01
  0.1360E+01
  0.1438E+01
  0.3213E+01
  0.3213E+01
  0.3213E+01
  0.3213E+01
  0.3213E+01
  0.3213E+01
  0.3212E+01
  0.3209E+01
  0.3202E+01
  0.3182E+01
  0.3140E+01
  0.3071E+01
  0.2979E+01
  0.2871E+01
  0.2758E+01
  0.2644E+01
  0.2532E+01
  0.2424E+01
  0.2319E+01
  0.2218E+01
  0.2122E+01
  0.2030E+01
  0.1943E+01
  0.1860E+01
  0.1781E+01
  0.1706E+01
  0.1634E+01
  0.1566E+01
  0.1501E+01
  0.1439E+01
  0.1380E+01
  0.1323E+01
  0.1269E+01
  0.1217E+01
  0.1168E+01
  0.1121E+01
  0.1077E+01
  0.1035E+01
  0.9945E+00
  0.9566E+00
  0.9209E+00
  0.8876E+00
  0.8584E+00
  0.8342E+00
  0.8233E+00
  0.8240E+00
  0.8346E+00
  0.8563E+00
  0.8794E+00
  0.8984E+00
  0.9132E+00
  0.9252E+00
  0.9314E+00
  0.9267E+00
  0.8822E+00
  0.8099E+00
  0.8365E+00
  0.1017E+01
  0.1344E+01
  0.1429E+01
  0.3202E+01
  0.3202E+01
  0.3202E+01
  0.3202E+01
  0.3202E+01
  0.3202E+01
  0.3201E+01
  0.3199E+01
  0.3191E+01
  0.3172E+01
  0.3131E+01
  0.3063E+01
  0.2971E+01
  0.2863E+01
  0.2750E+01
  0.2637E+01
  0.2525E+01
  0.2416E+01
  0.2312E+01
  0.2211E+01
  0.2115E+01
  0.2023E+01
  0.1936E+01
  0.1853E+01
  0.1774E+01
  0.1699E+01
  0.1627E+01
  0.1559E+01
  0.1494E+01
  0.1432E+01
  0.1372E+01
  0.1316E+01
  0.1262E+01
  0.1210E+01
  0.1160E+01
  0.1113E+01
  0.1069E+01
  0.1026E+01
  0.9857E+00
  0.9474E+00
  0.9113E+00
  0.8776E+00
  0.8478E+00
  0.8231E+00
  0.8098E+00
  0.8097E+00
  0.8186E+00
  0.8387E+00
  0.8611E+00
  0.8810E+00
  0.9004E+00
  0.9208E+00
  0.9320E+00
  0.9279E+00
  0.8818E+00
  0.8009E+00
  0.8233E+00
  0.1003E+01
  0.1321E+01
  0.1399E+01
  0.3187E+01
  0.3187E+01
  0.3187E+01
  0.3187E+01
  0.3187E+01
  0.3187E+01
  0.3186E+01
  0.3184E+01
  0.3177E+01
  0.3157E+01
  0.3117E+01
  0.3050E+01
  0.2959E+01
  0.2853E+01
  0.2740E+01
  0.2626E+01
  0.2515E+01
  0.2406E+01
  0.2301E+01
  0.2201E+01
  0.2105E+01
  0.2013E+01
  0.1926E+01
  0.1843E+01
  0.1764E+01
  0.1689E+01
  0.1617E+01
  0.1549E+01
  0.1484E+01
  0.1421E+01
  0.1362E+01
  0.1305E+01
  0.1251E+01
  0.1199E+01
  0.1149E+01
  0.1102E+01
  0.1056E+01
  0.1013E+01
  0.9726E+00
  0.9337E+00
  0.8969E+00
  0.8625E+00
  0.8317E+00
  0.8062E+00
  0.7901E+00
  0.7886E+00
  0.7957E+00
  0.8139E+00
  0.8354E+00
  0.8575E+00
  0.8829E+00
  0.9130E+00
  0.9312E+00
  0.9270E+00
  0.8755E+00
  0.7858E+00
  0.8062E+00
  0.9828E+00
  0.1285E+01
  0.1389E+01
  0.3167E+01
  0.3167E+01
  0.3167E+01
  0.3167E+01
  0.3167E+01
  0.3167E+01
  0.3167E+01
  0.3164E+01
  0.3157E+01
  0.3139E+01
  0.3100E+01
  0.3034E+01
  0.2944E+01
  0.2838E+01
  0.2726E+01
  0.2612E+01
  0.2501E+01
  0.2392E+01
  0.2288E+01
  0.2187E+01
  0.2091E+01
  0.2000E+01
  0.1912E+01
  0.1829E+01
  0.1750E+01
  0.1675E+01
  0.1603E+01
  0.1535E+01
  0.1470E+01
  0.1407E+01
  0.1347E+01
  0.1290E+01
  0.1235E+01
  0.1183E+01
  0.1133E+01
  0.1085E+01
  0.1039E+01
  0.9953E+00
  0.9537E+00
  0.9140E+00
  0.8764E+00
  0.8411E+00
  0.8092E+00
  0.7827E+00
  0.7635E+00
  0.7606E+00
  0.7657E+00
  0.7824E+00
  0.8038E+00
  0.8297E+00
  0.8638E+00
  0.9060E+00
  0.9294E+00
  0.9230E+00
  0.8616E+00
  0.7632E+00
  0.7815E+00
  0.9576E+00
  0.1265E+01
  0.1387E+01
  0.3141E+01
  0.3141E+01
  0.3141E+01
  0.3141E+01
  0.3141E+01
  0.3141E+01
  0.3141E+01
  0.3139E+01
  0.3132E+01
  0.3114E+01
  0.3077E+01
  0.3013E+01
  0.2924E+01
  0.2819E+01
  0.2707E+01
  0.2594E+01
  0.2482E+01
  0.2374E+01
  0.2270E+01
  0.2169E+01
  0.2073E+01
  0.1982E+01
  0.1894E+01
  0.1811E+01
  0.1732E+01
  0.1657E+01
  0.1585E+01
  0.1516E+01
  0.1450E+01
  0.1387E+01
  0.1327E+01
  0.1269E+01
  0.1214E+01
  0.1161E+01
  0.1110E+01
  0.1061E+01
  0.1015E+01
  0.9704E+00
  0.9279E+00
  0.8874E+00
  0.8490E+00
  0.8129E+00
  0.7801E+00
  0.7523E+00
  0.7308E+00
  0.7265E+00
  0.7306E+00
  0.7462E+00
  0.7694E+00
  0.8029E+00
  0.8493E+00
  0.9039E+00
  0.9254E+00
  0.9142E+00
  0.8390E+00
  0.7345E+00
  0.7515E+00
  0.9310E+00
  0.1236E+01
  0.1376E+01
  0.3108E+01
  0.3108E+01
  0.3108E+01
  0.3108E+01
  0.3108E+01
  0.3108E+01
  0.3107E+01
  0.3105E+01
  0.3099E+01
  0.3082E+01
  0.3046E+01
  0.2984E+01
  0.2897E+01
  0.2793E+01
  0.2681E+01
  0.2569E+01
  0.2458E+01
  0.2350E+01
  0.2245E+01
  0.2145E+01
  0.2049E+01
  0.1957E+01
  0.1870E+01
  0.1786E+01
  0.1707E+01
  0.1631E+01
  0.1559E+01
  0.1490E+01
  0.1424E+01
  0.1360E+01
  0.1299E+01
  0.1241E+01
  0.1185E+01
  0.1131E+01
  0.1080E+01
  0.1030E+01
  0.9833E+00
  0.9383E+00
  0.8952E+00
  0.8542E+00
  0.8152E+00
  0.7786E+00
  0.7452E+00
  0.7165E+00
  0.6933E+00
  0.6889E+00
  0.6926E+00
  0.7087E+00
  0.7383E+00
  0.7849E+00
  0.8478E+00
  0.9074E+00
  0.9180E+00
  0.8979E+00
  0.8081E+00
  0.6997E+00
  0.7163E+00
  0.8937E+00
  0.1201E+01
  0.1376E+01
  0.3064E+01
  0.3064E+01
  0.3064E+01
  0.3064E+01
  0.3064E+01
  0.3063E+01
  0.3063E+01
  0.3061E+01
  0.3056E+01
  0.3040E+01
  0.3006E+01
  0.2946E+01
  0.2860E+01
  0.2758E+01
  0.2647E+01
  0.2535E+01
  0.2425E+01
  0.2317E+01
  0.2213E+01
  0.2112E+01
  0.2016E+01
  0.1924E+01
  0.1837E+01
  0.1753E+01
  0.1673E+01
  0.1597E+01
  0.1525E+01
  0.1455E+01
  0.1388E+01
  0.1325E+01
  0.1263E+01
  0.1205E+01
  0.1148E+01
  0.1094E+01
  0.1042E+01
  0.9925E+00
  0.9451E+00
  0.8999E+00
  0.8567E+00
  0.8156E+00
  0.7767E+00
  0.7401E+00
  0.7067E+00
  0.6774E+00
  0.6540E+00
  0.6502E+00
  0.6548E+00
  0.6753E+00
  0.7183E+00
  0.7835E+00
  0.8580E+00
  0.9070E+00
  0.9084E+00
  0.8701E+00
  0.7693E+00
  0.6606E+00
  0.6771E+00
  0.8508E+00
  0.1172E+01
  0.1383E+01
  0.3006E+01
  0.3006E+01
  0.3006E+01
  0.3006E+01
  0.3006E+01
  0.3006E+01
  0.3005E+01
  0.3004E+01
  0.2999E+01
  0.2984E+01
  0.2952E+01
  0.2895E+01
  0.2812E+01
  0.2711E+01
  0.2602E+01
  0.2491E+01
  0.2381E+01
  0.2273E+01
  0.2169E+01
  0.2069E+01
  0.1973E+01
  0.1881E+01
  0.1794E+01
  0.1710E+01
  0.1630E+01
  0.1554E+01
  0.1481E+01
  0.1411E+01
  0.1345E+01
  0.1281E+01
  0.1219E+01
  0.1161E+01
  0.1104E+01
  0.1050E+01
  0.9984E+00
  0.9491E+00
  0.9021E+00
  0.8572E+00
  0.8145E+00
  0.7740E+00
  0.7356E+00
  0.6996E+00
  0.6666E+00
  0.6369E+00
  0.6153E+00
  0.6133E+00
  0.6215E+00
  0.6534E+00
  0.7180E+00
  0.7985E+00
  0.8750E+00
  0.9005E+00
  0.8921E+00
  0.8316E+00
  0.7230E+00
  0.6196E+00
  0.6366E+00
  0.8062E+00
  0.1131E+01
  0.1370E+01
  0.2933E+01
  0.2933E+01
  0.2933E+01
  0.2933E+01
  0.2933E+01
  0.2933E+01
  0.2932E+01
  0.2931E+01
  0.2926E+01
  0.2913E+01
  0.2884E+01
  0.2829E+01
  0.2750E+01
  0.2651E+01
  0.2544E+01
  0.2434E+01
  0.2324E+01
  0.2218E+01
  0.2115E+01
  0.2015E+01
  0.1919E+01
  0.1828E+01
  0.1741E+01
  0.1657E+01
  0.1578E+01
  0.1502E+01
  0.1429E+01
  0.1360E+01
  0.1294E+01
  0.1230E+01
  0.1169E+01
  0.1111E+01
  0.1055E+01
  0.1002E+01
  0.9510E+00
  0.9025E+00
  0.8564E+00
  0.8125E+00
  0.7709E+00
  0.7313E+00
  0.6940E+00
  0.6589E+00
  0.6267E+00
  0.5959E+00
  0.5802E+00
  0.5813E+00
  0.5985E+00
  0.6535E+00
  0.7355E+00
  0.8235E+00
  0.8838E+00
  0.8896E+00
  0.8664E+00
  0.7822E+00
  0.6717E+00
  0.5797E+00
  0.5975E+00
  0.7609E+00
  0.1078E+01
  0.1357E+01
  0.2844E+01
  0.2844E+01
  0.2844E+01
  0.2844E+01
  0.2844E+01
  0.2844E+01
  0.2844E+01
  0.2843E+01
  0.2839E+01
  0.2827E+01
  0.2800E+01
  0.2749E+01
  0.2673E+01
  0.2578E+01
  0.2472E+01
  0.2364E+01
  0.2256E+01
  0.2151E+01
  0.2049E+01
  0.1950E+01
  0.1856E+01
  0.1766E+01
  0.1679E+01
  0.1597E+01
  0.1518E+01
  0.1443E+01
  0.1371E+01
  0.1303E+01
  0.1238E+01
  0.1175E+01
  0.1115E+01
  0.1058E+01
  0.1004E+01
  0.9517E+00
  0.9022E+00
  0.8550E+00
  0.8103E+00
  0.7678E+00
  0.7275E+00
  0.6893E+00
  0.6532E+00
  0.6191E+00
  0.5872E+00
  0.5571E+00
  0.5510E+00
  0.5578E+00
  0.5981E+00
  0.6747E+00
  0.7672E+00
  0.8504E+00
  0.8810E+00
  0.8756E+00
  0.8259E+00
  0.7250E+00
  0.6177E+00
  0.5449E+00
  0.5639E+00
  0.7165E+00
  0.1024E+01
  0.1373E+01
  0.2742E+01
  0.2742E+01
  0.2742E+01
  0.2742E+01
  0.2742E+01
  0.2742E+01
  0.2742E+01
  0.2741E+01
  0.2737E+01
  0.2727E+01
  0.2702E+01
  0.2656E+01
  0.2584E+01
  0.2492E+01
  0.2390E+01
  0.2284E+01
  0.2179E+01
  0.2075E+01
  0.1975E+01
  0.1878E+01
  0.1785E+01
  0.1696E+01
  0.1611E+01
  0.1531E+01
  0.1453E+01
  0.1380E+01
  0.1310E+01
  0.1243E+01
  0.1179E+01
  0.1118E+01
  0.1060E+01
  0.1005E+01
  0.9519E+00
  0.9016E+00
  0.8537E+00
  0.8082E+00
  0.7651E+00
  0.7242E+00
  0.6854E+00
  0.6487E+00
  0.6138E+00
  0.5809E+00
  0.5473E+00
  0.5273E+00
  0.5292E+00
  0.5558E+00
  0.6214E+00
  0.7122E+00
  0.8057E+00
  0.8668E+00
  0.8724E+00
  0.8517E+00
  0.7703E+00
  0.6614E+00
  0.5653E+00
  0.5214E+00
  0.5405E+00
  0.6715E+00
  0.9627E+00
  0.1383E+01
  0.2630E+01
  0.2630E+01
  0.2630E+01
  0.2630E+01
  0.2630E+01
  0.2630E+01
  0.2630E+01
  0.2629E+01
  0.2626E+01
  0.2617E+01
  0.2595E+01
  0.2553E+01
  0.2486E+01
  0.2399E+01
  0.2300E+01
  0.2197E+01
  0.2094E+01
  0.1993E+01
  0.1895E+01
  0.1801E+01
  0.1710E+01
  0.1624E+01
  0.1541E+01
  0.1462E+01
  0.1387E+01
  0.1315E+01
  0.1247E+01
  0.1182E+01
  0.1121E+01
  0.1062E+01
  0.1006E+01
  0.9522E+00
  0.9012E+00
  0.8527E+00
  0.8067E+00
  0.7630E+00
  0.7216E+00
  0.6824E+00
  0.6453E+00
  0.6098E+00
  0.5761E+00
  0.5425E+00
  0.5126E+00
  0.5091E+00
  0.5261E+00
  0.5798E+00
  0.6635E+00
  0.7585E+00
  0.8405E+00
  0.8665E+00
  0.8597E+00
  0.8057E+00
  0.7015E+00
  0.5949E+00
  0.5237E+00
  0.5111E+00
  0.5270E+00
  0.6270E+00
  0.8822E+00
  0.1362E+01
  0.2513E+01
  0.2513E+01
  0.2513E+01
  0.2513E+01
  0.2513E+01
  0.2513E+01
  0.2513E+01
  0.2513E+01
  0.2510E+01
  0.2502E+01
  0.2483E+01
  0.2445E+01
  0.2383E+01
  0.2301E+01
  0.2206E+01
  0.2107E+01
  0.2007E+01
  0.1909E+01
  0.1814E+01
  0.1722E+01
  0.1634E+01
  0.1550E+01
  0.1470E+01
  0.1393E+01
  0.1321E+01
  0.1252E+01
  0.1186E+01
  0.1123E+01
  0.1064E+01
  0.1007E+01
  0.9528E+00
  0.9014E+00
  0.8524E+00
  0.8058E+00
  0.7617E+00
  0.7198E+00
  0.6802E+00
  0.6427E+00
  0.6069E+00
  0.5727E+00
  0.5390E+00
  0.5054E+00
  0.4958E+00
  0.5059E+00
  0.5502E+00
  0.6252E+00
  0.7172E+00
  0.8074E+00
  0.8565E+00
  0.8573E+00
  0.8255E+00
  0.7324E+00
  0.6227E+00
  0.5360E+00
  0.5050E+00
  0.5071E+00
  0.5243E+00
  0.5906E+00
  0.7885E+00
  0.1322E+01
  0.2396E+01
  0.2396E+01
  0.2396E+01
  0.2396E+01
  0.2396E+01
  0.2396E+01
  0.2396E+01
  0.2395E+01
  0.2393E+01
  0.2387E+01
  0.2370E+01
  0.2336E+01
  0.2279E+01
  0.2202E+01
  0.2112E+01
  0.2016E+01
  0.1920E+01
  0.1825E+01
  0.1733E+01
  0.1644E+01
  0.1559E+01
  0.1478E+01
  0.1400E+01
  0.1326E+01
  0.1256E+01
  0.1190E+01
  0.1126E+01
  0.1066E+01
  0.1009E+01
  0.9541E+00
  0.9022E+00
  0.8528E+00
  0.8058E+00
  0.7612E+00
  0.7189E+00
  0.6788E+00
  0.6409E+00
  0.6049E+00
  0.5703E+00
  0.5368E+00
  0.5007E+00
  0.4867E+00
  0.4937E+00
  0.5294E+00
  0.5944E+00
  0.6809E+00
  0.7743E+00
  0.8430E+00
  0.8520E+00
  0.8326E+00
  0.7500E+00
  0.6410E+00
  0.5474E+00
  0.5020E+00
  0.5005E+00
  0.5095E+00
  0.5302E+00
  0.5720E+00
  0.6993E+00
  0.1239E+01
  0.2281E+01
  0.2281E+01
  0.2281E+01
  0.2281E+01
  0.2281E+01
  0.2281E+01
  0.2281E+01
  0.2280E+01
  0.2279E+01
  0.2273E+01
  0.2259E+01
  0.2229E+01
  0.2177E+01
  0.2105E+01
  0.2019E+01
  0.1927E+01
  0.1835E+01
  0.1743E+01
  0.1655E+01
  0.1569E+01
  0.1487E+01
  0.1408E+01
  0.1333E+01
  0.1262E+01
  0.1195E+01
  0.1130E+01
  0.1069E+01
  0.1011E+01
  0.9563E+00
  0.9040E+00
  0.8541E+00
  0.8067E+00
  0.7616E+00
  0.7189E+00
  0.6784E+00
  0.6401E+00
  0.6037E+00
  0.5687E+00
  0.5351E+00
  0.4992E+00
  0.4824E+00
  0.4870E+00
  0.5167E+00
  0.5746E+00
  0.6517E+00
  0.7417E+00
  0.8208E+00
  0.8427E+00
  0.8288E+00
  0.7550E+00
  0.6474E+00
  0.5522E+00
  0.5000E+00
  0.4952E+00
  0.5016E+00
  0.5189E+00
  0.5428E+00
  0.5672E+00
  0.6211E+00
  0.1014E+01
  0.2170E+01
  0.2170E+01
  0.2170E+01
  0.2170E+01
  0.2170E+01
  0.2170E+01
  0.2170E+01
  0.2169E+01
  0.2168E+01
  0.2164E+01
  0.2151E+01
  0.2125E+01
  0.2078E+01
  0.2011E+01
  0.1930E+01
  0.1842E+01
  0.1753E+01
  0.1665E+01
  0.1579E+01
  0.1497E+01
  0.1417E+01
  0.1342E+01
  0.1270E+01
  0.1201E+01
  0.1136E+01
  0.1074E+01
  0.1015E+01
  0.9596E+00
  0.9067E+00
  0.8563E+00
  0.8085E+00
  0.7630E+00
  0.7198E+00
  0.6788E+00
  0.6401E+00
  0.6033E+00
  0.5680E+00
  0.5339E+00
  0.4978E+00
  0.4803E+00
  0.4838E+00
  0.5089E+00
  0.5634E+00
  0.6383E+00
  0.7245E+00
  0.8043E+00
  0.8305E+00
  0.8199E+00
  0.7516E+00
  0.6440E+00
  0.5502E+00
  0.4977E+00
  0.4914E+00
  0.4963E+00
  0.5115E+00
  0.5320E+00
  0.5545E+00
  0.5651E+00
  0.5428E+00
  0.7118E+00
  0.2064E+01
  0.2064E+01
  0.2064E+01
  0.2064E+01
  0.2064E+01
  0.2064E+01
  0.2064E+01
  0.2063E+01
  0.2062E+01
  0.2059E+01
  0.2048E+01
  0.2025E+01
  0.1983E+01
  0.1921E+01
  0.1844E+01
  0.1761E+01
  0.1675E+01
  0.1590E+01
  0.1508E+01
  0.1428E+01
  0.1352E+01
  0.1278E+01
  0.1209E+01
  0.1143E+01
  0.1080E+01
  0.1021E+01
  0.9641E+00
  0.9105E+00
  0.8596E+00
  0.8112E+00
  0.7652E+00
  0.7216E+00
  0.6801E+00
  0.6409E+00
  0.6037E+00
  0.5680E+00
  0.5338E+00
  0.4965E+00
  0.4789E+00
  0.4819E+00
  0.5035E+00
  0.5488E+00
  0.6157E+00
  0.7027E+00
  0.7964E+00
  0.8258E+00
  0.8152E+00
  0.7455E+00
  0.6362E+00
  0.5439E+00
  0.4953E+00
  0.4898E+00
  0.4934E+00
  0.5070E+00
  0.5253E+00
  0.5452E+00
  0.5568E+00
  0.5465E+00
  0.4612E+00
  0.5016E+00
  0.1963E+01
  0.1963E+01
  0.1963E+01
  0.1963E+01
  0.1963E+01
  0.1963E+01
  0.1963E+01
  0.1962E+01
  0.1962E+01
  0.1959E+01
  0.1950E+01
  0.1930E+01
  0.1892E+01
  0.1835E+01
  0.1763E+01
  0.1683E+01
  0.1601E+01
  0.1519E+01
  0.1440E+01
  0.1363E+01
  0.1289E+01
  0.1218E+01
  0.1151E+01
  0.1088E+01
  0.1027E+01
  0.9699E+00
  0.9155E+00
  0.8639E+00
  0.8149E+00
  0.7684E+00
  0.7243E+00
  0.6823E+00
  0.6426E+00
  0.6048E+00
  0.5688E+00
  0.5341E+00
  0.4971E+00
  0.4786E+00
  0.4810E+00
  0.5034E+00
  0.5487E+00
  0.6066E+00
  0.6787E+00
  0.7611E+00
  0.8123E+00
  0.8092E+00
  0.7444E+00
  0.6301E+00
  0.5380E+00
  0.4947E+00
  0.4902E+00
  0.4931E+00
  0.5050E+00
  0.5212E+00
  0.5387E+00
  0.5495E+00
  0.5450E+00
  0.4944E+00
  0.3857E+00
  0.3624E+00
  0.1867E+01
  0.1867E+01
  0.1867E+01
  0.1867E+01
  0.1867E+01
  0.1867E+01
  0.1867E+01
  0.1867E+01
  0.1866E+01
  0.1863E+01
  0.1856E+01
  0.1839E+01
  0.1805E+01
  0.1753E+01
  0.1685E+01
  0.1609E+01
  0.1530E+01
  0.1452E+01
  0.1375E+01
  0.1301E+01
  0.1230E+01
  0.1162E+01
  0.1097E+01
  0.1035E+01
  0.9770E+00
  0.9218E+00
  0.8694E+00
  0.8197E+00
  0.7726E+00
  0.7279E+00
  0.6854E+00
  0.6452E+00
  0.6069E+00
  0.5703E+00
  0.5350E+00
  0.4969E+00
  0.4790E+00
  0.4811E+00
  0.4994E+00
  0.5464E+00
  0.6098E+00
  0.6819E+00
  0.7595E+00
  0.8026E+00
  0.8001E+00
  0.7407E+00
  0.6284E+00
  0.5371E+00
  0.4973E+00
  0.4927E+00
  0.4955E+00
  0.5058E+00
  0.5195E+00
  0.5343E+00
  0.5446E+00
  0.5423E+00
  0.5008E+00
  0.4127E+00
  0.3220E+00
  0.2777E+00
  0.1776E+01
  0.1776E+01
  0.1776E+01
  0.1776E+01
  0.1776E+01
  0.1776E+01
  0.1776E+01
  0.1776E+01
  0.1775E+01
  0.1773E+01
  0.1767E+01
  0.1752E+01
  0.1723E+01
  0.1675E+01
  0.1611E+01
  0.1539E+01
  0.1463E+01
  0.1388E+01
  0.1314E+01
  0.1242E+01
  0.1173E+01
  0.1108E+01
  0.1045E+01
  0.9858E+00
  0.9296E+00
  0.8763E+00
  0.8258E+00
  0.7780E+00
  0.7326E+00
  0.6896E+00
  0.6487E+00
  0.6098E+00
  0.5727E+00
  0.5367E+00
  0.4978E+00
  0.4801E+00
  0.4821E+00
  0.5014E+00
  0.5410E+00
  0.5988E+00
  0.6764E+00
  0.7651E+00
  0.8088E+00
  0.8027E+00
  0.7448E+00
  0.6325E+00
  0.5411E+00
  0.5031E+00
  0.4979E+00
  0.5006E+00
  0.5089E+00
  0.5198E+00
  0.5321E+00
  0.5415E+00
  0.5400E+00
  0.5045E+00
  0.4224E+00
  0.3376E+00
  0.2704E+00
  0.2326E+00
  0.1690E+01
  0.1690E+01
  0.1690E+01
  0.1690E+01
  0.1690E+01
  0.1690E+01
  0.1690E+01
  0.1690E+01
  0.1689E+01
  0.1688E+01
  0.1683E+01
  0.1670E+01
  0.1644E+01
  0.1600E+01
  0.1541E+01
  0.1473E+01
  0.1400E+01
  0.1327E+01
  0.1256E+01
  0.1187E+01
  0.1120E+01
  0.1057E+01
  0.9965E+00
  0.9392E+00
  0.8849E+00
  0.8335E+00
  0.7848E+00
  0.7386E+00
  0.6949E+00
  0.6533E+00
  0.6137E+00
  0.5761E+00
  0.5393E+00
  0.5002E+00
  0.4832E+00
  0.4845E+00
  0.5038E+00
  0.5478E+00
  0.6014E+00
  0.6651E+00
  0.7467E+00
  0.8107E+00
  0.8085E+00
  0.7560E+00
  0.6428E+00
  0.5490E+00
  0.5103E+00
  0.5048E+00
  0.5074E+00
  0.5137E+00
  0.5217E+00
  0.5315E+00
  0.5397E+00
  0.5383E+00
  0.5063E+00
  0.4285E+00
  0.3462E+00
  0.2798E+00
  0.2340E+00
  0.2108E+00
  0.1609E+01
  0.1609E+01
  0.1609E+01
  0.1609E+01
  0.1609E+01
  0.1609E+01
  0.1609E+01
  0.1609E+01
  0.1609E+01
  0.1607E+01
  0.1604E+01
  0.1593E+01
  0.1570E+01
  0.1530E+01
  0.1476E+01
  0.1410E+01
  0.1341E+01
  0.1271E+01
  0.1202E+01
  0.1135E+01
  0.1071E+01
  0.1010E+01
  0.9512E+00
  0.8958E+00
  0.8433E+00
  0.7936E+00
  0.7465E+00
  0.7019E+00
  0.6595E+00
  0.6192E+00
  0.5808E+00
  0.5425E+00
  0.5047E+00
  0.4876E+00
  0.4885E+00
  0.5080E+00
  0.5530E+00
  0.6117E+00
  0.6781E+00
  0.7487E+00
  0.7957E+00
  0.8034E+00
  0.7605E+00
  0.6502E+00
  0.5561E+00
  0.5173E+00
  0.5121E+00
  0.5142E+00
  0.5189E+00
  0.5246E+00
  0.5322E+00
  0.5390E+00
  0.5373E+00
  0.5064E+00
  0.4312E+00
  0.3515E+00
  0.2862E+00
  0.2396E+00
  0.2127E+00
  0.2026E+00
  0.1535E+01
  0.1535E+01
  0.1535E+01
  0.1535E+01
  0.1535E+01
  0.1535E+01
  0.1535E+01
  0.1535E+01
  0.1535E+01
  0.1534E+01
  0.1531E+01
  0.1522E+01
  0.1502E+01
  0.1466E+01
  0.1415E+01
  0.1354E+01
  0.1287E+01
  0.1220E+01
  0.1153E+01
  0.1089E+01
  0.1027E+01
  0.9671E+00
  0.9105E+00
  0.8567E+00
  0.8057E+00
  0.7574E+00
  0.7117E+00
  0.6683E+00
  0.6270E+00
  0.5872E+00
  0.5476E+00
  0.5129E+00
  0.4949E+00
  0.4951E+00
  0.5156E+00
  0.5606E+00
  0.6184E+00
  0.6890E+00
  0.7664E+00
  0.8059E+00
  0.7999E+00
  0.7516E+00
  0.6497E+00
  0.5587E+00
  0.5217E+00
  0.5180E+00
  0.5197E+00
  0.5231E+00
  0.5272E+00
  0.5334E+00
  0.5394E+00
  0.5372E+00
  0.5068E+00
  0.4324E+00
  0.3538E+00
  0.2901E+00
  0.2439E+00
  0.2155E+00
  0.2034E+00
  0.2004E+00
  0.1473E+01
  0.1473E+01
  0.1473E+01
  0.1473E+01
  0.1473E+01
  0.1473E+01
  0.1473E+01
  0.1473E+01
  0.1472E+01
  0.1472E+01
  0.1469E+01
  0.1462E+01
  0.1444E+01
  0.1412E+01
  0.1365E+01
  0.1306E+01
  0.1242E+01
  0.1177E+01
  0.1113E+01
  0.1050E+01
  0.9898E+00
  0.9318E+00
  0.8765E+00
  0.8239E+00
  0.7740E+00
  0.7265E+00
  0.6813E+00
  0.6381E+00
  0.5963E+00
  0.5574E+00
  0.5270E+00
  0.5078E+00
  0.5074E+00
  0.5282E+00
  0.5754E+00
  0.6331E+00
  0.6992E+00
  0.7702E+00
  0.8083E+00
  0.8041E+00
  0.7542E+00
  0.6466E+00
  0.5574E+00
  0.5225E+00
  0.5206E+00
  0.5227E+00
  0.5259E+00
  0.5292E+00
  0.5345E+00
  0.5399E+00
  0.5376E+00
  0.5074E+00
  0.4335E+00
  0.3553E+00
  0.2920E+00
  0.2466E+00
  0.2178E+00
  0.2044E+00
  0.2006E+00
  0.2001E+00
  0.1424E+01
  0.1424E+01
  0.1424E+01
  0.1424E+01
  0.1424E+01
  0.1424E+01
  0.1424E+01
  0.1424E+01
  0.1424E+01
  0.1423E+01
  0.1421E+01
  0.1415E+01
  0.1400E+01
  0.1371E+01
  0.1328E+01
  0.1273E+01
  0.1211E+01
  0.1148E+01
  0.1084E+01
  0.1023E+01
  0.9629E+00
  0.9056E+00
  0.8507E+00
  0.7984E+00
  0.7485E+00
  0.7011E+00
  0.6568E+00
  0.6161E+00
  0.5802E+00
  0.5507E+00
  0.5282E+00
  0.5275E+00
  0.5486E+00
  0.5952E+00
  0.6544E+00
  0.7217E+00
  0.7838E+00
  0.8110E+00
  0.8035E+00
  0.7501E+00
  0.6435E+00
  0.5541E+00
  0.5202E+00
  0.5202E+00
  0.5230E+00
  0.5265E+00
  0.5303E+00
  0.5356E+00
  0.5406E+00
  0.5382E+00
  0.5078E+00
  0.4337E+00
  0.3557E+00
  0.2930E+00
  0.2479E+00
  0.2193E+00
  0.2052E+00
  0.2008E+00
  0.2001E+00
  0.2000E+00
  0.1410E+01
  0.1410E+01
  0.1410E+01
  0.1410E+01
  0.1410E+01
  0.1410E+01
  0.1410E+01
  0.1410E+01
  0.1410E+01
  0.1410E+01
  0.1408E+01
  0.1403E+01
  0.1390E+01
  0.1364E+01
  0.1322E+01
  0.1268E+01
  0.1208E+01
  0.1144E+01
  0.1081E+01
  0.1018E+01
  0.9577E+00
  0.8994E+00
  0.8437E+00
  0.7908E+00
  0.7412E+00
  0.6951E+00
  0.6526E+00
  0.6140E+00
  0.5812E+00
  0.5572E+00
  0.5569E+00
  0.5786E+00
  0.6249E+00
  0.6810E+00
  0.7446E+00
  0.8064E+00
  0.8228E+00
  0.8065E+00
  0.7436E+00
  0.6373E+00
  0.5501E+00
  0.5172E+00
  0.5177E+00
  0.5217E+00
  0.5260E+00
  0.5300E+00
  0.5358E+00
  0.5409E+00
  0.5386E+00
  0.5082E+00
  0.4339E+00
  0.3557E+00
  0.2931E+00
  0.2485E+00
  0.2200E+00
  0.2058E+00
  0.2010E+00
  0.2001E+00
  0.2000E+00
  0.2000E+00
  0.1412E+01
  0.1412E+01
  0.1412E+01
  0.1412E+01
  0.1412E+01
  0.1412E+01
  0.1412E+01
  0.1411E+01
  0.1411E+01
  0.1411E+01
  0.1410E+01
  0.1405E+01
  0.1393E+01
  0.1369E+01
  0.1329E+01
  0.1277E+01
  0.1216E+01
  0.1152E+01
  0.1088E+01
  0.1024E+01
  0.9621E+00
  0.9027E+00
  0.8462E+00
  0.7931E+00
  0.7437E+00
  0.6980E+00
  0.6567E+00
  0.6217E+00
  0.5985E+00
  0.5993E+00
  0.6206E+00
  0.6639E+00
  0.7165E+00
  0.7737E+00
  0.8236E+00
  0.8325E+00
  0.8151E+00
  0.7421E+00
  0.6319E+00
  0.5444E+00
  0.5119E+00
  0.5132E+00
  0.5195E+00
  0.5251E+00
  0.5295E+00
  0.5354E+00
  0.5406E+00
  0.5385E+00
  0.5082E+00
  0.4340E+00
  0.3557E+00
  0.2931E+00
  0.2486E+00
  0.2203E+00
  0.2061E+00
  0.2012E+00
  0.2001E+00
  0.2000E+00
  0.2000E+00
  0.2000E+00
  0.1426E+01
  0.1426E+01
  0.1426E+01
  0.1426E+01
  0.1426E+01
  0.1426E+01
  0.1426E+01
  0.1426E+01
  0.1426E+01
  0.1425E+01
  0.1424E+01
  0.1421E+01
  0.1411E+01
  0.1389E+01
  0.1352E+01
  0.1300E+01
  0.1239E+01
  0.1173E+01
  0.1107E+01
  0.1041E+01
  0.9780E+00
  0.9171E+00
  0.8596E+00
  0.8061E+00
  0.7569E+00
  0.7128E+00
  0.6765E+00
  0.6535E+00
  0.6543E+00
  0.6738E+00
  0.7124E+00
  0.7587E+00
  0.8070E+00
  0.8417E+00
  0.8418E+00
  0.8224E+00
  0.7458E+00
  0.6311E+00
  0.5392E+00
  0.5045E+00
  0.5062E+00
  0.5149E+00
  0.5236E+00
  0.5292E+00
  0.5351E+00
  0.5404E+00
  0.5382E+00
  0.5077E+00
  0.4338E+00
  0.3557E+00
  0.2931E+00
  0.2485E+00
  0.2203E+00
  0.2062E+00
  0.2012E+00
  0.2002E+00
  0.2000E+00
  0.2000E+00
  0.2000E+00
  0.2000E+00
  0.1450E+01
  0.1450E+01
  0.1450E+01
  0.1450E+01
  0.1450E+01
  0.1450E+01
  0.1450E+01
  0.1450E+01
  0.1450E+01
  0.1450E+01
  0.1449E+01
  0.1446E+01
  0.1437E+01
  0.1417E+01
  0.1381E+01
  0.1329E+01
  0.1266E+01
  0.1198E+01
  0.1129E+01
  0.1062E+01
  0.9966E+00
  0.9348E+00
  0.8773E+00
  0.8247E+00
  0.7785E+00
  0.7416E+00
  0.7189E+00
  0.7188E+00
  0.7348E+00
  0.7669E+00
  0.8051E+00
  0.8410E+00
  0.8572E+00
  0.8510E+00
  0.8286E+00
  0.7509E+00
  0.6359E+00
  0.5386E+00
  0.4977E+00
  0.4985E+00
  0.5079E+00
  0.5197E+00
  0.5280E+00
  0.5350E+00
  0.5406E+00
  0.5384E+00
  0.5079E+00
  0.4337E+00
  0.3555E+00
  0.2929E+00
  0.2485E+00
  0.2203E+00
  0.2062E+00
  0.2012E+00
  0.2002E+00
  0.2000E+00
  0.2000E+00
  0.2000E+00
  0.2000E+00
  0.2000E+00
  0.1471E+01
  0.1471E+01
  0.1471E+01
  0.1471E+01
  0.1471E+01
  0.1471E+01
  0.1471E+01
  0.1471E+01
  0.1471E+01
  0.1471E+01
  0.1470E+01
  0.1467E+01
  0.1459E+01
  0.1440E+01
  0.1405E+01
  0.1353E+01
  0.1289E+01
  0.1219E+01
  0.1148E+01
  0.1078E+01
  0.1012E+01
  0.9511E+00
  0.8960E+00
  0.8483E+00
  0.8107E+00
  0.7873E+00
  0.7847E+00
  0.7982E+00
  0.8231E+00
  0.8504E+00
  0.8670E+00
  0.8661E+00
  0.8580E+00
  0.8312E+00
  0.7539E+00
  0.6428E+00
  0.5431E+00
  0.4943E+00
  0.4928E+00
  0.5003E+00
  0.5140E+00
  0.5251E+00
  0.5339E+00
  0.5405E+00
  0.5385E+00
  0.5084E+00
  0.4341E+00
  0.3557E+00
  0.2930E+00
  0.2484E+00
  0.2203E+00
  0.2061E+00
  0.2012E+00
  0.2002E+00
  0.2000E+00
  0.2000E+00
  0.2000E+00
  0.2000E+00
  0.2000E+00
  0.2000E+00
  0.1482E+01
  0.1482E+01
  0.1482E+01
  0.1482E+01
  0.1482E+01
  0.1482E+01
  0.1482E+01
  0.1482E+01
  0.1482E+01
  0.1482E+01
  0.1481E+01
  0.1478E+01
  0.1470E+01
  0.1452E+01
  0.1417E+01
  0.1365E+01
  0.1300E+01
  0.1230E+01
  0.1158E+01
  0.1089E+01
  0.1026E+01
  0.9685E+00
  0.9196E+00
  0.8813E+00
  0.8565E+00
  0.8503E+00
  0.8583E+00
  0.8752E+00
  0.8842E+00
  0.8808E+00
  0.8730E+00
  0.8598E+00
  0.8250E+00
  0.7494E+00
  0.6465E+00
  0.5496E+00
  0.4950E+00
  0.4901E+00
  0.4949E+00
  0.5087E+00
  0.5218E+00
  0.5322E+00
  0.5395E+00
  0.5380E+00
  0.5084E+00
  0.4343E+00
  0.3559E+00
  0.2931E+00
  0.2485E+00
  0.2203E+00
  0.2061E+00
  0.2012E+00
  0.2002E+00
  0.2000E+00
  0.2000E+00
  0.2000E+00
  0.2000E+00
  0.2000E+00
  0.2000E+00
  0.2000E+00
  0.1483E+01
  0.1483E+01
  0.1483E+01
  0.1483E+01
  0.1483E+01
  0.1483E+01
  0.1483E+01
  0.1483E+01
  0.1483E+01
  0.1483E+01
  0.1482E+01
  0.1479E+01
  0.1471E+01
  0.1452E+01
  0.1417E+01
  0.1365E+01
  0.1300E+01
  0.1230E+01
  0.1161E+01
  0.1098E+01
  0.1040E+01
  0.9910E+00
  0.9521E+00
  0.9252E+00
  0.9123E+00
  0.9108E+00
  0.9084E+00
  0.9004E+00
  0.8903E+00
  0.8757E+00
  0.8515E+00
  0.8058E+00
  0.7327E+00
  0.6408E+00
  0.5524E+00
  0.4973E+00
  0.4897E+00
  0.4930E+00
  0.5056E+00
  0.5197E+00
  0.5313E+00
  0.5390E+00
  0.5373E+00
  0.5073E+00
  0.4338E+00
  0.3559E+00
  0.2932E+00
  0.2486E+00
  0.2203E+00
  0.2062E+00
  0.2012E+00
  0.2002E+00
  0.2000E+00
  0.2000E+00
  0.2000E+00
  0.2000E+00
  0.2000E+00
  0.2000E+00
  0.2000E+00
  0.2000E+00
  0.1479E+01
  0.1479E+01
  0.1479E+01
  0.1479E+01
  0.1479E+01
  0.1479E+01
  0.1478E+01
  0.1478E+01
  0.1478E+01
  0.1478E+01
  0.1477E+01
  0.1473E+01
  0.1464E+01
  0.1444E+01
  0.1409E+01
  0.1357E+01
  0.1294E+01
  0.1226E+01
  0.1161E+01
  0.1101E+01
  0.1050E+01
  0.1009E+01
  0.9768E+00
  0.9538E+00
  0.9367E+00
  0.9231E+00
  0.9102E+00
  0.8928E+00
  0.8665E+00
  0.8262E+00
  0.7706E+00
  0.7015E+00
  0.6226E+00
  0.5477E+00
  0.5001E+00
  0.4914E+00
  0.4936E+00
  0.5048E+00
  0.5195E+00
  0.5322E+00
  0.5397E+00
  0.5373E+00
  0.5067E+00
  0.4334E+00
  0.3556E+00
  0.2931E+00
  0.2486E+00
  0.2204E+00
  0.2062E+00
  0.2012E+00
  0.2002E+00
  0.2000E+00
  0.2000E+00
  0.2000E+00
  0.2000E+00
  0.2000E+00
  0.2000E+00
  0.2000E+00
  0.2000E+00
  0.2000E+00
  0.1439E+01
  0.1439E+01
  0.1439E+01
  0.1439E+01
  0.1439E+01
  0.1439E+01
  0.1439E+01
  0.1439E+01
  0.1438E+01
  0.1438E+01
  0.1436E+01
  0.1430E+01
  0.1419E+01
  0.1397E+01
  0.1361E+01
  0.1312E+01
  0.1255E+01
  0.1198E+01
  0.1143E+01
  0.1092E+01
  0.1046E+01
  0.1007E+01
  0.9749E+00
  0.9496E+00
  0.9277E+00
  0.9050E+00
  0.8736E+00
  0.8334E+00
  0.7830E+00
  0.7252E+00
  0.6617E+00
  0.5955E+00
  0.5357E+00
  0.5017E+00
  0.4949E+00
  0.4969E+00
  0.5066E+00
  0.5209E+00
  0.5345E+00
  0.5421E+00
  0.5386E+00
  0.5062E+00
  0.4325E+00
  0.3554E+00
  0.2930E+00
  0.2485E+00
  0.2203E+00
  0.2062E+00
  0.2012E+00
  0.2002E+00
  0.2000E+00
  0.2000E+00
  0.2000E+00
  0.2000E+00
  0.2000E+00
  0.2000E+00
  0.2000E+00
  0.2000E+00
  0.2000E+00
  0.2000E+00
  0.1324E+01
  0.1324E+01
  0.1324E+01
  0.1324E+01