# vtk DataFile Version 3.0
vtk output
ASCII
DATASET RECTILINEAR_GRID
DIMENSIONS          61          61 1
X_COORDINATES    61 double
  0.0000E+00
  0.1667E+00
  0.3333E+00
  0.5000E+00
  0.6667E+00
  0.8333E+00
  0.1000E+01
  0.1167E+01
  0.1333E+01
  0.1500E+01
  0.1667E+01
  0.1833E+01
  0.2000E+01
  0.2167E+01
  0.2333E+01
  0.2500E+01
  0.2667E+01
  0.2833E+01
  0.3000E+01
  0.3167E+01
  0.3333E+01
  0.3500E+01
  0.3667E+01
  0.3833E+01
  0.4000E+01
  0.4167E+01
  0.4333E+01
  0.4500E+01
  0.4667E+01
  0.4833E+01
  0.5000E+01
  0.5167E+01
  0.5333E+01
  0.5500E+01
  0.5667E+01
  0.5833E+01
  0.6000E+01
  0.6167E+01
  0.6333E+01
  0.6500E+01
  0.6667E+01
  0.6833E+01
  0.7000E+01
  0.7167E+01
  0.7333E+01
  0.7500E+01
  0.7667E+01
  0.7833E+01
  0.8000E+01
  0.8167E+01
  0.8333E+01
  0.8500E+01
  0.8667E+01
  0.8833E+01
  0.9000E+01
  0.9167E+01
  0.9333E+01
  0.9500E+01
  0.9667E+01
  0.9833E+01
  0.1000E+02
Y_COORDINATES    61 double
  0.0000E+00
  0.1667E+00
  0.3333E+00
  0.5000E+00
  0.6667E+00
  0.8333E+00
  0.1000E+01
  0.1167E+01
  0.1333E+01
  0.1500E+01
  0.1667E+01
  0.1833E+01
  0.2000E+01
  0.2167E+01
  0.2333E+01
  0.2500E+01
  0.2667E+01
  0.2833E+01
  0.3000E+01
  0.3167E+01
  0.3333E+01
  0.3500E+01
  0.3667E+01
  0.3833E+01
  0.4000E+01
  0.4167E+01
  0.4333E+01
  0.4500E+01
  0.4667E+01
  0.4833E+01
  0.5000E+01
  0.5167E+01
  0.5333E+01
  0.5500E+01
  0.5667E+01
  0.5833E+01
  0.6000E+01
  0.6167E+01
  0.6333E+01
  0.6500E+01
  0.6667E+01
  0.6833E+01
  0.7000E+01
  0.7167E+01
  0.7333E+01
  0.7500E+01
  0.7667E+01
  0.7833E+01
  0.8000E+01
  0.8167E+01
  0.8333E+01
  0.8500E+01
  0.8667E+01
  0.8833E+01
  0.9000E+01
  0.9167E+01
  0.9333E+01
  0.9500E+01
  0.9667E+01
  0.9833E+01
  0.1000E+02
Z_COORDINATES 1 double
0
CELL_DATA                 3600
FIELD FieldData 4
density 1                 3600 double
  0.6636E+01
  0.6636E+01
  0.6636E+01
  0.6636E+01
  0.6636E+01
  0.6636E+01
  0.6636E+01
  0.6636E+01
  0.6636E+01
  0.6636E+01
  0.6636E+01
  0.6636E+01
  0.6636E+01
  0.6636E+01
  0.6635E+01
  0.6630E+01
  0.6610E+01
  0.6547E+01
  0.6397E+01
  0.6140E+01
  0.5799E+01
  0.5421E+01
  0.5040E+01
  0.4671E+01
  0.4323E+01
  0.4000E+01
  0.3700E+01
  0.3422E+01
  0.3164E+01
  0.2925E+01
  0.2701E+01
  0.2490E+01
  0.2292E+01
  0.2108E+01
  0.1942E+01
  0.1795E+01
  0.1672E+01
  0.1577E+01
  0.1505E+01
  0.1456E+01
  0.1431E+01
  0.1414E+01
  0.1365E+01
  0.1239E+01
  0.1056E+01
  0.8760E+00
  0.7501E+00
  0.7125E+00
  0.7136E+00
  0.7063E+00
  0.5843E+00
  0.3573E+00
  0.2350E+00
  0.2016E+00
  0.2000E+00
  0.2000E+00
  0.2000E+00
  0.2000E+00
  0.2000E+00
  0.2000E+00
  0.6431E+01
  0.6431E+01
  0.6431E+01
  0.6431E+01
  0.6431E+01
  0.6431E+01
  0.6431E+01
  0.6431E+01
  0.6431E+01
  0.6431E+01
  0.6431E+01
  0.6431E+01
  0.6431E+01
  0.6430E+01
  0.6430E+01
  0.6425E+01
  0.6406E+01
  0.6345E+01
  0.6202E+01
  0.5954E+01
  0.5624E+01
  0.5259E+01
  0.4890E+01
  0.4533E+01
  0.4197E+01
  0.3885E+01
  0.3596E+01
  0.3329E+01
  0.3081E+01
  0.2851E+01
  0.2637E+01
  0.2434E+01
  0.2244E+01
  0.2068E+01
  0.1908E+01
  0.1767E+01
  0.1649E+01
  0.1558E+01
  0.1489E+01
  0.1442E+01
  0.1419E+01
  0.1402E+01
  0.1352E+01
  0.1225E+01
  0.1041E+01
  0.8626E+00
  0.7380E+00
  0.7030E+00
  0.7049E+00
  0.6980E+00
  0.5767E+00
  0.3534E+00
  0.2338E+00
  0.2015E+00
  0.2000E+00
  0.2000E+00
  0.2000E+00
  0.2000E+00
  0.2000E+00
  0.2000E+00
  0.6084E+01
  0.6084E+01
  0.6084E+01
  0.6084E+01
  0.6084E+01
  0.6084E+01
  0.6084E+01
  0.6084E+01
  0.6084E+01
  0.6084E+01
  0.6084E+01
  0.6084E+01
  0.6084E+01
  0.6084E+01
  0.6083E+01
  0.6079E+01
  0.6062E+01
  0.6006E+01
  0.5873E+01
  0.5640E+01
  0.5329E+01
  0.4982E+01
  0.4633E+01
  0.4295E+01
  0.3977E+01
  0.3682E+01
  0.3410E+01
  0.3159E+01
  0.2927E+01
  0.2712E+01
  0.2511E+01
  0.2323E+01
  0.2146E+01
  0.1982E+01
  0.1833E+01
  0.1702E+01
  0.1593E+01
  0.1510E+01
  0.1448E+01
  0.1405E+01
  0.1385E+01
  0.1369E+01
  0.1318E+01
  0.1191E+01
  0.1011E+01
  0.8374E+00
  0.7180E+00
  0.6872E+00
  0.6908E+00
  0.6848E+00
  0.5634E+00
  0.3461E+00
  0.2315E+00
  0.2013E+00
  0.2000E+00
  0.2000E+00
  0.2000E+00
  0.2000E+00
  0.2000E+00
  0.2000E+00
  0.5682E+01
  0.5682E+01
  0.5682E+01
  0.5682E+01
  0.5682E+01
  0.5682E+01
  0.5682E+01
  0.5682E+01
  0.5682E+01
  0.5682E+01
  0.5682E+01
  0.5682E+01
  0.5682E+01
  0.5682E+01
  0.5681E+01
  0.5678E+01
  0.5662E+01
  0.5612E+01
  0.5491E+01
  0.5276E+01
  0.4986E+01
  0.4661E+01
  0.4332E+01
  0.4014E+01
  0.3715E+01
  0.3438E+01
  0.3183E+01
  0.2948E+01
  0.2731E+01
  0.2531E+01
  0.2345E+01
  0.2171E+01
  0.2007E+01
  0.1856E+01
  0.1720E+01
  0.1600E+01
  0.1501E+01
  0.1428E+01
  0.1372E+01
  0.1334E+01
  0.1317E+01
  0.1303E+01
  0.1254E+01
  0.1135E+01
  0.9670E+00
  0.8051E+00
  0.6949E+00
  0.6701E+00
  0.6754E+00
  0.6690E+00
  0.5439E+00
  0.3350E+00
  0.2279E+00
  0.2010E+00
  0.2000E+00
  0.2000E+00
  0.2000E+00
  0.2000E+00
  0.2000E+00
  0.2000E+00
  0.5271E+01
  0.5271E+01
  0.5271E+01
  0.5271E+01
  0.5271E+01
  0.5271E+01
  0.5271E+01
  0.5271E+01
  0.5271E+01
  0.5271E+01
  0.5271E+01
  0.5271E+01
  0.5271E+01
  0.5271E+01
  0.5271E+01
  0.5268E+01
  0.5255E+01
  0.5211E+01
  0.5102E+01
  0.4905E+01
  0.4636E+01
  0.4332E+01
  0.4024E+01
  0.3725E+01
  0.3444E+01
  0.3185E+01
  0.2946E+01
  0.2726E+01
  0.2523E+01
  0.2337E+01
  0.2164E+01
  0.2001E+01
  0.1850E+01
  0.1711E+01
  0.1586E+01
  0.1476E+01
  0.1386E+01
  0.1320E+01
  0.1269E+01
  0.1234E+01
  0.1220E+01
  0.1209E+01
  0.1168E+01
  0.1064E+01
  0.9158E+00
  0.7698E+00
  0.6709E+00
  0.6532E+00
  0.6602E+00
  0.6515E+00
  0.5177E+00
  0.3205E+00
  0.2233E+00
  0.2007E+00
  0.2000E+00
  0.2000E+00
  0.2000E+00
  0.2000E+00
  0.2000E+00
  0.2000E+00
  0.4873E+01
  0.4873E+01
  0.4873E+01
  0.4873E+01
  0.4873E+01
  0.4873E+01
  0.4873E+01
  0.4873E+01
  0.4873E+01
  0.4873E+01
  0.4873E+01
  0.4873E+01
  0.4873E+01
  0.4873E+01
  0.4873E+01
  0.4870E+01
  0.4859E+01
  0.4821E+01
  0.4725E+01
  0.4546E+01
  0.4297E+01
  0.4014E+01
  0.3725E+01
  0.3445E+01
  0.3181E+01
  0.2938E+01
  0.2714E+01
  0.2508E+01
  0.2318E+01
  0.2144E+01
  0.1983E+01
  0.1832E+01
  0.1691E+01
  0.1562E+01
  0.1447E+01
  0.1346E+01
  0.1263E+01
  0.1202E+01
  0.1154E+01
  0.1119E+01
  0.1109E+01
  0.1103E+01
  0.1074E+01
  0.9903E+00
  0.8645E+00
  0.7331E+00
  0.6468E+00
  0.6365E+00
  0.6457E+00
  0.6321E+00
  0.4856E+00
  0.3032E+00
  0.2180E+00
  0.2005E+00
  0.2000E+00
  0.2000E+00
  0.2000E+00
  0.2000E+00
  0.2000E+00
  0.2000E+00
  0.4498E+01
  0.4498E+01
  0.4498E+01
  0.4498E+01
  0.4498E+01
  0.4498E+01
  0.4498E+01
  0.4498E+01
  0.4498E+01
  0.4498E+01
  0.4498E+01
  0.4498E+01
  0.4498E+01
  0.4498E+01
  0.4498E+01
  0.4496E+01
  0.4486E+01
  0.4453E+01
  0.4369E+01
  0.4208E+01
  0.3979E+01
  0.3715E+01
  0.3444E+01
  0.3181E+01
  0.2934E+01
  0.2705E+01
  0.2495E+01
  0.2302E+01
  0.2124E+01
  0.1961E+01
  0.1810E+01
  0.1670E+01
  0.1539E+01
  0.1419E+01
  0.1312E+01
  0.1219E+01
  0.1143E+01
  0.1085E+01
  0.1039E+01
  0.1004E+01
  0.9985E+00
  0.9985E+00
  0.9874E+00
  0.9248E+00
  0.8151E+00
  0.6959E+00
  0.6240E+00
  0.6199E+00
  0.6330E+00
  0.6101E+00
  0.4474E+00
  0.2843E+00
  0.2126E+00
  0.2003E+00
  0.2000E+00
  0.2000E+00
  0.2000E+00
  0.2000E+00
  0.2000E+00
  0.2000E+00
  0.4149E+01
  0.4149E+01
  0.4149E+01
  0.4149E+01
  0.4149E+01
  0.4149E+01
  0.4149E+01
  0.4149E+01
  0.4149E+01
  0.4149E+01
  0.4149E+01
  0.4149E+01
  0.4149E+01
  0.4149E+01
  0.4149E+01
  0.4147E+01
  0.4140E+01
  0.4112E+01
  0.4038E+01
  0.3894E+01
  0.3684E+01
  0.3438E+01
  0.3185E+01
  0.2938E+01
  0.2705E+01
  0.2490E+01
  0.2293E+01
  0.2111E+01
  0.1945E+01
  0.1793E+01
  0.1651E+01
  0.1520E+01
  0.1398E+01
  0.1286E+01
  0.1187E+01
  0.1100E+01
  0.1029E+01
  0.9752E+00
  0.9291E+00
  0.8988E+00
  0.8977E+00
  0.9082E+00
  0.9086E+00
  0.8736E+00
  0.7714E+00
  0.6581E+00
  0.6031E+00
  0.6064E+00
  0.6208E+00
  0.5798E+00
  0.4052E+00
  0.2645E+00
  0.2078E+00
  0.2001E+00
  0.2000E+00
  0.2000E+00
  0.2000E+00
  0.2000E+00
  0.2000E+00
  0.2000E+00
  0.3826E+01
  0.3826E+01
  0.3826E+01
  0.3826E+01
  0.3826E+01
  0.3826E+01
  0.3826E+01
  0.3826E+01
  0.3826E+01
  0.3826E+01
  0.3826E+01
  0.3826E+01
  0.3826E+01
  0.3826E+01
  0.3826E+01
  0.3825E+01
  0.3819E+01
  0.3795E+01
  0.3732E+01
  0.3603E+01
  0.3412E+01
  0.3183E+01
  0.2946E+01
  0.2714E+01
  0.2495E+01
  0.2293E+01
  0.2107E+01
  0.1937E+01
  0.1781E+01
  0.1638E+01
  0.1506E+01
  0.1383E+01
  0.1269E+01
  0.1165E+01
  0.1073E+01
  0.9922E+00
  0.9260E+00
  0.8749E+00
  0.8274E+00
  0.8090E+00
  0.8128E+00
  0.8404E+00
  0.8527E+00
  0.8281E+00
  0.7267E+00
  0.6196E+00
  0.5859E+00
  0.5958E+00
  0.6050E+00
  0.5379E+00
  0.3620E+00
  0.2455E+00
  0.2042E+00
  0.2000E+00
  0.2000E+00
  0.2000E+00
  0.2000E+00
  0.2000E+00
  0.2000E+00
  0.2000E+00
  0.3528E+01
  0.3528E+01
  0.3528E+01
  0.3528E+01
  0.3528E+01
  0.3528E+01
  0.3528E+01
  0.3528E+01
  0.3528E+01
  0.3528E+01
  0.3528E+01
  0.3528E+01
  0.3528E+01
  0.3528E+01
  0.3527E+01
  0.3526E+01
  0.3521E+01
  0.3502E+01
  0.3448E+01
  0.3334E+01
  0.3160E+01
  0.2948E+01
  0.2725E+01
  0.2507E+01
  0.2301E+01
  0.2111E+01
  0.1937E+01
  0.1777E+01
  0.1631E+01
  0.1497E+01
  0.1374E+01
  0.1259E+01
  0.1152E+01
  0.1056E+01
  0.9693E+00
  0.8945E+00
  0.8332E+00
  0.7837E+00
  0.7410E+00
  0.7341E+00
  0.7507E+00
  0.8041E+00
  0.8189E+00
  0.7856E+00
  0.6754E+00
  0.5836E+00
  0.5725E+00
  0.5888E+00
  0.5865E+00
  0.4822E+00
  0.3202E+00
  0.2288E+00
  0.2019E+00
  0.2000E+00
  0.2000E+00
  0.2000E+00
  0.2000E+00
  0.2000E+00
  0.2000E+00
  0.2000E+00
  0.3252E+01
  0.3252E+01
  0.3252E+01
  0.3252E+01
  0.3252E+01
  0.3252E+01
  0.3252E+01
  0.3252E+01
  0.3252E+01
  0.3252E+01
  0.3252E+01
  0.3252E+01
  0.3252E+01
  0.3252E+01
  0.3251E+01
  0.3251E+01
  0.3247E+01
  0.3231E+01
  0.3185E+01
  0.3085E+01
  0.2927E+01
  0.2731E+01
  0.2523E+01
  0.2318E+01
  0.2124E+01
  0.1945E+01
  0.1781E+01
  0.1631E+01
  0.1494E+01
  0.1369E+01
  0.1253E+01
  0.1146E+01
  0.1047E+01
  0.9563E+00
  0.8762E+00
  0.8064E+00
  0.7500E+00
  0.6997E+00
  0.6747E+00
  0.6775E+00
  0.7226E+00
  0.7937E+00
  0.7980E+00
  0.7318E+00
  0.6173E+00
  0.5575E+00
  0.5624E+00
  0.5814E+00
  0.5568E+00
  0.4175E+00
  0.2830E+00
  0.2158E+00
  0.2007E+00
  0.2000E+00
  0.2000E+00
  0.2000E+00
  0.2000E+00
  0.2000E+00
  0.2000E+00
  0.2000E+00
  0.2996E+01
  0.2996E+01
  0.2996E+01
  0.2996E+01
  0.2996E+01
  0.2996E+01
  0.2996E+01
  0.2996E+01
  0.2996E+01
  0.2996E+01
  0.2996E+01
  0.2996E+01
  0.2996E+01
  0.2996E+01
  0.2996E+01
  0.2996E+01
  0.2993E+01
  0.2980E+01
  0.2941E+01
  0.2855E+01
  0.2712E+01
  0.2531E+01
  0.2337E+01
  0.2144E+01
  0.1961E+01
  0.1793E+01
  0.1638E+01
  0.1497E+01
  0.1369E+01
  0.1252E+01
  0.1143E+01
  0.1043E+01
  0.9499E+00
  0.8661E+00
  0.7912E+00
  0.7270E+00
  0.6729E+00
  0.6307E+00
  0.6257E+00
  0.6559E+00
  0.7426E+00
  0.7847E+00
  0.7621E+00
  0.6595E+00
  0.5601E+00
  0.5427E+00
  0.5588E+00
  0.5665E+00
  0.5046E+00
  0.3568E+00
  0.2517E+00
  0.2073E+00
  0.2002E+00
  0.2000E+00
  0.2000E+00
  0.2000E+00
  0.2000E+00
  0.2000E+00
  0.2000E+00
  0.2000E+00
  0.2759E+01
  0.2759E+01
  0.2759E+01
  0.2759E+01
  0.2759E+01
  0.2759E+01
  0.2759E+01
  0.2759E+01
  0.2759E+01
  0.2759E+01
  0.2759E+01
  0.2759E+01
  0.2759E+01
  0.2759E+01
  0.2759E+01
  0.2758E+01
  0.2756E+01
  0.2746E+01
  0.2714E+01
  0.2639E+01
  0.2511E+01
  0.2345E+01
  0.2163E+01
  0.1982E+01
  0.1810E+01
  0.1651E+01
  0.1506E+01
  0.1374E+01
  0.1253E+01
  0.1143E+01
  0.1042E+01
  0.9475E+00
  0.8613E+00
  0.7831E+00
  0.7134E+00
  0.6533E+00
  0.6010E+00
  0.5868E+00
  0.6061E+00
  0.6816E+00
  0.7580E+00
  0.7613E+00
  0.6926E+00
  0.5781E+00
  0.5267E+00
  0.5344E+00
  0.5553E+00
  0.5403E+00
  0.4321E+00
  0.3039E+00
  0.2280E+00
  0.2027E+00
  0.2001E+00
  0.2000E+00
  0.2000E+00
  0.2000E+00
  0.2000E+00
  0.2000E+00
  0.2000E+00
  0.2000E+00
  0.2536E+01
  0.2536E+01
  0.2536E+01
  0.2536E+01
  0.2536E+01
  0.2536E+01
  0.2536E+01
  0.2536E+01
  0.2536E+01
  0.2536E+01
  0.2536E+01
  0.2536E+01
  0.2536E+01
  0.2536E+01
  0.2536E+01
  0.2536E+01
  0.2534E+01
  0.2526E+01
  0.2500E+01
  0.2436E+01
  0.2323E+01
  0.2170E+01
  0.2001E+01
  0.1831E+01
  0.1669E+01
  0.1520E+01
  0.1383E+01
  0.1259E+01
  0.1146E+01
  0.1043E+01
  0.9475E+00
  0.8600E+00
  0.7795E+00
  0.7065E+00
  0.6416E+00
  0.5814E+00
  0.5585E+00
  0.5738E+00
  0.6352E+00
  0.7276E+00
  0.7506E+00
  0.7098E+00
  0.5960E+00
  0.5188E+00
  0.5153E+00
  0.5361E+00
  0.5410E+00
  0.4854E+00
  0.3594E+00
  0.2620E+00
  0.2125E+00
  0.2008E+00
  0.2000E+00
  0.2000E+00
  0.2000E+00
  0.2000E+00
  0.2000E+00
  0.2000E+00
  0.2000E+00
  0.2000E+00
  0.2329E+01
  0.2329E+01
  0.2329E+01
  0.2329E+01
  0.2329E+01
  0.2329E+01
  0.2329E+01
  0.2329E+01
  0.2329E+01
  0.2329E+01
  0.2329E+01
  0.2329E+01
  0.2329E+01
  0.2329E+01
  0.2329E+01
  0.2328E+01
  0.2327E+01
  0.2321E+01
  0.2299E+01
  0.2245E+01
  0.2146E+01
  0.2007E+01
  0.1850E+01
  0.1691E+01
  0.1539E+01
  0.1398E+01
  0.1269E+01
  0.1152E+01
  0.1046E+01
  0.9499E+00
  0.8613E+00
  0.7795E+00
  0.7045E+00
  0.6360E+00
  0.5674E+00
  0.5398E+00
  0.5514E+00
  0.6018E+00
  0.6972E+00
  0.7393E+00
  0.7147E+00
  0.6147E+00
  0.5193E+00
  0.5029E+00
  0.5177E+00
  0.5345E+00
  0.5080E+00
  0.4053E+00
  0.3003E+00
  0.2318E+00
  0.2045E+00
  0.2002E+00
  0.2000E+00
  0.2000E+00
  0.2000E+00
  0.2000E+00
  0.2000E+00
  0.2000E+00
  0.2000E+00
  0.2000E+00
  0.2137E+01
  0.2137E+01
  0.2137E+01
  0.2137E+01
  0.2137E+01
  0.2137E+01
  0.2137E+01
  0.2137E+01
  0.2137E+01
  0.2137E+01
  0.2137E+01
  0.2137E+01
  0.2137E+01
  0.2137E+01
  0.2137E+01
  0.2137E+01
  0.2136E+01
  0.2131E+01
  0.2114E+01
  0.2069E+01
  0.1981E+01
  0.1856E+01
  0.1710E+01
  0.1562E+01
  0.1419E+01
  0.1286E+01
  0.1165E+01
  0.1055E+01
  0.9562E+00
  0.8661E+00
  0.7831E+00
  0.7065E+00
  0.6361E+00
  0.5627E+00
  0.5328E+00
  0.5403E+00
  0.5809E+00
  0.6675E+00
  0.7256E+00
  0.7155E+00
  0.6328E+00
  0.5303E+00
  0.4987E+00
  0.5072E+00
  0.5242E+00
  0.5138E+00
  0.4382E+00
  0.3341E+00
  0.2561E+00
  0.2133E+00
  0.2012E+00
  0.2000E+00
  0.2000E+00
  0.2000E+00
  0.2000E+00
  0.2000E+00
  0.2000E+00
  0.2000E+00
  0.2000E+00
  0.2000E+00
  0.1964E+01
  0.1964E+01
  0.1964E+01
  0.1964E+01
  0.1964E+01
  0.1964E+01
  0.1964E+01
  0.1964E+01
  0.1964E+01
  0.1964E+01
  0.1964E+01
  0.1964E+01
  0.1964E+01
  0.1964E+01
  0.1964E+01
  0.1964E+01
  0.1963E+01
  0.1960E+01
  0.1946E+01
  0.1909E+01
  0.1833E+01
  0.1720E+01
  0.1585E+01
  0.1446E+01
  0.1312E+01
  0.1187E+01
  0.1072E+01
  0.9692E+00
  0.8761E+00
  0.7912E+00
  0.7134E+00
  0.6415E+00
  0.5662E+00
  0.5340E+00
  0.5365E+00
  0.5659E+00
  0.6505E+00
  0.7246E+00
  0.7217E+00
  0.6497E+00
  0.5466E+00
  0.5014E+00
  0.5033E+00
  0.5179E+00
  0.5137E+00
  0.4553E+00
  0.3591E+00
  0.2787E+00
  0.2262E+00
  0.2043E+00
  0.2002E+00
  0.2000E+00
  0.2000E+00
  0.2000E+00
  0.2000E+00
  0.2000E+00
  0.2000E+00
  0.2000E+00
  0.2000E+00
  0.2000E+00
  0.1812E+01
  0.1812E+01
  0.1812E+01
  0.1812E+01
  0.1812E+01
  0.1812E+01
  0.1812E+01
  0.1812E+01
  0.1812E+01
  0.1812E+01
  0.1812E+01
  0.1812E+01
  0.1812E+01
  0.1812E+01
  0.1812E+01
  0.1812E+01
  0.1812E+01
  0.1809E+01
  0.1798E+01
  0.1768E+01
  0.1702E+01
  0.1600E+01
  0.1476E+01
  0.1346E+01
  0.1219E+01
  0.1100E+01
  0.9920E+00
  0.8943E+00
  0.8063E+00
  0.7269E+00
  0.6533E+00
  0.5791E+00
  0.5418E+00
  0.5424E+00
  0.5653E+00
  0.6285E+00
  0.7136E+00
  0.7244E+00
  0.6738E+00
  0.5689E+00
  0.5116E+00
  0.5072E+00
  0.5159E+00
  0.5131E+00
  0.4635E+00
  0.3747E+00
  0.2961E+00
  0.2397E+00
  0.2096E+00
  0.2010E+00
  0.2000E+00
  0.2000E+00
  0.2000E+00
  0.2000E+00
  0.2000E+00
  0.2000E+00
  0.2000E+00
  0.2000E+00
  0.2000E+00
  0.2000E+00
  0.1685E+01
  0.1685E+01
  0.1685E+01
  0.1685E+01
  0.1685E+01
  0.1685E+01
  0.1685E+01
  0.1685E+01
  0.1685E+01
  0.1685E+01
  0.1685E+01
  0.1685E+01
  0.1685E+01
  0.1685E+01
  0.1685E+01
  0.1685E+01
  0.1684E+01
  0.1682E+01
  0.1674E+01
  0.1649E+01
  0.1593E+01
  0.1501E+01
  0.1386E+01
  0.1263E+01
  0.1142E+01
  0.1029E+01
  0.9258E+00
  0.8330E+00
  0.7499E+00
  0.6728E+00
  0.6006E+00
  0.5602E+00
  0.5526E+00
  0.5793E+00
  0.6484E+00
  0.7121E+00
  0.7211E+00
  0.6808E+00
  0.5852E+00
  0.5241E+00
  0.5154E+00
  0.5201E+00
  0.5149E+00
  0.4686E+00
  0.3842E+00
  0.3076E+00
  0.2507E+00
  0.2159E+00
  0.2026E+00
  0.2002E+00
  0.2000E+00
  0.2000E+00
  0.2000E+00
  0.2000E+00
  0.2000E+00
  0.2000E+00
  0.2000E+00
  0.2000E+00
  0.2000E+00
  0.2000E+00
  0.1587E+01
  0.1587E+01
  0.1587E+01
  0.1587E+01
  0.1587E+01
  0.1587E+01
  0.1587E+01
  0.1587E+01
  0.1587E+01
  0.1587E+01
  0.1587E+01
  0.1587E+01
  0.1587E+01
  0.1587E+01
  0.1587E+01
  0.1587E+01
  0.1587E+01
  0.1585E+01
  0.1579E+01
  0.1558E+01
  0.1510E+01
  0.1428E+01
  0.1319E+01
  0.1201E+01
  0.1085E+01
  0.9750E+00
  0.8747E+00
  0.7835E+00
  0.6997E+00
  0.6307E+00
  0.5882E+00
  0.5729E+00
  0.6003E+00
  0.6685E+00
  0.7234E+00
  0.7239E+00
  0.6817E+00
  0.5896E+00
  0.5280E+00
  0.5220E+00
  0.5255E+00
  0.5188E+00
  0.4723E+00
  0.3900E+00
  0.3148E+00
  0.2585E+00
  0.2217E+00
  0.2047E+00
  0.2005E+00
  0.2000E+00
  0.2000E+00
  0.2000E+00
  0.2000E+00
  0.2000E+00
  0.2000E+00
  0.2000E+00
  0.2000E+00
  0.2000E+00
  0.2000E+00
  0.2000E+00
  0.1513E+01
  0.1513E+01
  0.1513E+01
  0.1513E+01
  0.1513E+01
  0.1513E+01
  0.1513E+01
  0.1513E+01
  0.1513E+01
  0.1513E+01
  0.1513E+01
  0.1513E+01
  0.1513E+01
  0.1513E+01
  0.1513E+01
  0.1513E+01
  0.1512E+01
  0.1511E+01
  0.1506E+01
  0.1490E+01
  0.1448E+01
  0.1372E+01
  0.1269E+01
  0.1154E+01
  0.1039E+01
  0.9290E+00
  0.8274E+00
  0.7411E+00
  0.6746E+00
  0.6256E+00
  0.6063E+00
  0.6327E+00
  0.6967E+00
  0.7306E+00
  0.7225E+00
  0.6734E+00
  0.5854E+00
  0.5274E+00
  0.5214E+00
  0.5247E+00
  0.5204E+00
  0.4746E+00
  0.3922E+00
  0.3190E+00
  0.2635E+00
  0.2261E+00
  0.2069E+00
  0.2010E+00
  0.2001E+00
  0.2000E+00
  0.2000E+00
  0.2000E+00
  0.2000E+00
  0.2000E+00
  0.2000E+00
  0.2000E+00
  0.2000E+00
  0.2000E+00
  0.2000E+00
  0.2000E+00
  0.1462E+01
  0.1462E+01
  0.1462E+01
  0.1462E+01
  0.1462E+01
  0.1462E+01
  0.1462E+01
  0.1462E+01
  0.1462E+01
  0.1462E+01
  0.1462E+01
  0.1462E+01
  0.1462E+01
  0.1462E+01
  0.1462E+01
  0.1462E+01
  0.1462E+01
  0.1461E+01
  0.1457E+01
  0.1442E+01
  0.1405E+01
  0.1334E+01
  0.1234E+01
  0.1119E+01
  0.1004E+01
  0.8987E+00
  0.8090E+00
  0.7338E+00
  0.6774E+00
  0.6556E+00
  0.6805E+00
  0.7275E+00
  0.7366E+00
  0.7194E+00
  0.6517E+00
  0.5686E+00
  0.5220E+00
  0.5204E+00
  0.5235E+00
  0.5170E+00
  0.4718E+00
  0.3926E+00
  0.3202E+00
  0.2663E+00
  0.2291E+00
  0.2087E+00
  0.2015E+00
  0.2001E+00
  0.2000E+00
  0.2000E+00
  0.2000E+00
  0.2000E+00
  0.2000E+00
  0.2000E+00
  0.2000E+00
  0.2000E+00
  0.2000E+00
  0.2000E+00
  0.2000E+00
  0.2000E+00
  0.1436E+01
  0.1436E+01
  0.1436E+01
  0.1436E+01
  0.1436E+01
  0.1436E+01
  0.1436E+01
  0.1436E+01
  0.1436E+01
  0.1436E+01
  0.1436E+01
  0.1436E+01
  0.1436E+01
  0.1436E+01
  0.1436E+01
  0.1436E+01
  0.1436E+01
  0.1435E+01
  0.1432E+01
  0.1419E+01
  0.1385E+01
  0.1317E+01
  0.1220E+01
  0.1109E+01
  0.9985E+00
  0.8977E+00
  0.8128E+00
  0.7507E+00
  0.7232E+00
  0.7422E+00
  0.7603E+00
  0.7487E+00
  0.7148E+00
  0.6310E+00
  0.5472E+00
  0.5119E+00
  0.5158E+00
  0.5231E+00
  0.5182E+00
  0.4711E+00
  0.3906E+00
  0.3198E+00
  0.2672E+00
  0.2310E+00
  0.2101E+00
  0.2020E+00
  0.2002E+00
  0.2000E+00
  0.2000E+00
  0.2000E+00
  0.2000E+00
  0.2000E+00
  0.2000E+00
  0.2000E+00
  0.2000E+00
  0.2000E+00
  0.2000E+00
  0.2000E+00
  0.2000E+00
  0.2000E+00
  0.1420E+01
  0.1420E+01
  0.1420E+01
  0.1420E+01
  0.1420E+01
  0.1420E+01
  0.1420E+01
  0.1420E+01
  0.1420E+01
  0.1420E+01
  0.1420E+01
  0.1420E+01
  0.1420E+01
  0.1420E+01
  0.1420E+01
  0.1420E+01
  0.1420E+01
  0.1419E+01
  0.1415E+01
  0.1403E+01
  0.1369E+01
  0.1303E+01
  0.1209E+01
  0.1103E+01
  0.9984E+00
  0.9080E+00
  0.8404E+00
  0.8039E+00
  0.7931E+00
  0.7827E+00
  0.7624E+00
  0.7089E+00
  0.6148E+00
  0.5294E+00
  0.5018E+00
  0.5092E+00
  0.5208E+00
  0.5177E+00
  0.4732E+00
  0.3921E+00
  0.3199E+00
  0.2672E+00
  0.2317E+00
  0.2111E+00
  0.2024E+00
  0.2003E+00
  0.2000E+00
  0.2000E+00
  0.2000E+00
  0.2000E+00
  0.2000E+00
  0.2000E+00
  0.2000E+00
  0.2000E+00
  0.2000E+00
  0.2000E+00
  0.2000E+00
  0.2000E+00
  0.2000E+00
  0.2000E+00
  0.1372E+01
  0.1372E+01
  0.1372E+01
  0.1372E+01
  0.1372E+01
  0.1372E+01
  0.1372E+01
  0.1372E+01
  0.1372E+01
  0.1372E+01
  0.1372E+01
  0.1372E+01
  0.1372E+01
  0.1372E+01
  0.1372E+01
  0.1372E+01
  0.1372E+01
  0.1371E+01
  0.1366E+01
  0.1353E+01
  0.1318E+01
  0.1254E+01
  0.1168E+01
  0.1074E+01
  0.9874E+00
  0.9084E+00
  0.8524E+00
  0.8184E+00
  0.7977E+00
  0.7616E+00
  0.6912E+00
  0.5984E+00
  0.5202E+00
  0.4987E+00
  0.5047E+00
  0.5184E+00
  0.5161E+00
  0.4731E+00
  0.3921E+00
  0.3201E+00
  0.2673E+00
  0.2317E+00
  0.2114E+00
  0.2027E+00
  0.2004E+00
  0.2000E+00
  0.2000E+00
  0.2000E+00
  0.2000E+00
  0.2000E+00
  0.2000E+00
  0.2000E+00
  0.2000E+00
  0.2000E+00
  0.2000E+00
  0.2000E+00
  0.2000E+00
  0.2000E+00
  0.2000E+00
  0.2000E+00
  0.1248E+01
  0.1248E+01
  0.1248E+01
  0.1248E+01
  0.1248E+01
  0.1248E+01
  0.1248E+01
  0.1248E+01
  0.1248E+01
  0.1248E+01
  0.1248E+01
  0.1248E+01
  0.1248E+01
  0.1248E+01
  0.1248E+01
  0.1248E+01
  0.1248E+01
  0.1246E+01
  0.1241E+01
  0.1225E+01
  0.1191E+01
  0.1135E+01
  0.1064E+01
  0.9901E+00
  0.9246E+00
  0.8737E+00
  0.8277E+00
  0.7853E+00
  0.7320E+00
  0.6595E+00
  0.5769E+00
  0.5185E+00
  0.5031E+00
  0.5071E+00
  0.5187E+00
  0.5141E+00
  0.4696E+00
  0.3905E+00
  0.3192E+00
  0.2664E+00
  0.2311E+00
  0.2111E+00
  0.2028E+00
  0.2005E+00
  0.2000E+00
  0.2000E+00
  0.2000E+00
  0.2000E+00
  0.2000E+00
  0.2000E+00
  0.2000E+00
  0.2000E+00
  0.2000E+00
  0.2000E+00
  0.2000E+00
  0.2000E+00
  0.2000E+00
  0.2000E+00
  0.2000E+00
  0.2000E+00
  0.1068E+01
  0.1068E+01
  0.1068E+01
  0.1068E+01
  0.1068E+01
  0.1068E+01
  0.1068E+01
  0.1068E+01
  0.1068E+01
  0.1068E+01
  0.1068E+01
  0.1068E+01
  0.1068E+01
  0.1068E+01
  0.1068E+01
  0.1068E+01
  0.1067E+01
  0.1065E+01
  0.1058E+01
  0.1042E+01
  0.1011E+01
  0.9667E+00
  0.9155E+00
  0.8642E+00
  0.8148E+00
  0.7710E+00
  0.7264E+00
  0.6756E+00
  0.6168E+00
  0.5603E+00
  0.5266E+00
  0.5136E+00
  0.5180E+00
  0.5242E+00
  0.5139E+00
  0.4632E+00
  0.3841E+00
  0.3149E+00
  0.2635E+00
  0.2291E+00
  0.2101E+00
  0.2025E+00
  0.2004E+00
  0.2000E+00
  0.2000E+00
  0.2000E+00
  0.2000E+00
  0.2000E+00
  0.2000E+00
  0.2000E+00
  0.2000E+00
  0.2000E+00
  0.2000E+00
  0.2000E+00
  0.2000E+00
  0.2000E+00
  0.2000E+00
  0.2000E+00
  0.2000E+00
  0.2000E+00
  0.8912E+00
  0.8912E+00
  0.8912E+00
  0.8912E+00
  0.8912E+00
  0.8912E+00
  0.8912E+00
  0.8912E+00
  0.8912E+00
  0.8912E+00
  0.8912E+00
  0.8912E+00
  0.8912E+00
  0.8912E+00
  0.8911E+00
  0.8910E+00
  0.8902E+00
  0.8874E+00
  0.8797E+00
  0.8633E+00
  0.8374E+00
  0.8049E+00
  0.7696E+00
  0.7328E+00
  0.6956E+00
  0.6577E+00
  0.6194E+00
  0.5838E+00
  0.5576E+00
  0.5429E+00
  0.5338E+00
  0.5372E+00
  0.5341E+00
  0.5141E+00
  0.4536E+00
  0.3747E+00
  0.3074E+00
  0.2583E+00
  0.2260E+00
  0.2087E+00
  0.2020E+00
  0.2003E+00
  0.2000E+00
  0.2000E+00
  0.2000E+00
  0.2000E+00
  0.2000E+00
  0.2000E+00
  0.2000E+00
  0.2000E+00
  0.2000E+00
  0.2000E+00
  0.2000E+00
  0.2000E+00
  0.2000E+00
  0.2000E+00
  0.2000E+00
  0.2000E+00
  0.2000E+00
  0.2000E+00
  0.7671E+00
  0.7671E+00
  0.7671E+00
  0.7671E+00
  0.7671E+00
  0.7671E+00
  0.7671E+00
  0.7671E+00
  0.7671E+00
  0.7671E+00
  0.7671E+00
  0.7671E+00
  0.7671E+00
  0.7671E+00
  0.7670E+00
  0.7668E+00
  0.7659E+00
  0.7627E+00
  0.7544E+00
  0.7390E+00
  0.7181E+00
  0.6949E+00
  0.6709E+00
  0.6468E+00
  0.6240E+00
  0.6029E+00
  0.5860E+00
  0.5720E+00
  0.5625E+00
  0.5584E+00
  0.5548E+00
  0.5428E+00
  0.5082E+00
  0.4363E+00
  0.3588E+00
  0.2960E+00
  0.2507E+00
  0.2217E+00
  0.2069E+00
  0.2015E+00
  0.2002E+00
  0.2000E+00
  0.2000E+00
  0.2000E+00
  0.2000E+00
  0.2000E+00
  0.2000E+00
  0.2000E+00
  0.2000E+00
  0.2000E+00
  0.2000E+00
  0.2000E+00
  0.2000E+00
  0.2000E+00
  0.2000E+00
  0.2000E+00
  0.2000E+00
  0.2000E+00
  0.2000E+00
  0.2000E+00
  0.7303E+00
  0.7303E+00
  0.7303E+00
  0.7303E+00
  0.7303E+00
  0.7303E+00
  0.7303E+00
  0.7303E+00
  0.7303E+00
  0.7303E+00
  0.7303E+00
  0.7303E+00
  0.7303E+00
  0.7302E+00
  0.7302E+00
  0.7300E+00
  0.7289E+00
  0.7254E+00
  0.7173E+00
  0.7041E+00
  0.6875E+00
  0.6702E+00
  0.6533E+00
  0.6366E+00
  0.6200E+00
  0.6063E+00
  0.5959E+00
  0.5889E+00
  0.5813E+00
  0.5660E+00
  0.5405E+00
  0.4852E+00
  0.4059E+00
  0.3339E+00
  0.2787E+00
  0.2396E+00
  0.2159E+00
  0.2047E+00
  0.2010E+00
  0.2001E+00
  0.2000E+00
  0.2000E+00
  0.2000E+00
  0.2000E+00
  0.2000E+00
  0.2000E+00
  0.2000E+00
  0.2000E+00
  0.2000E+00
  0.2000E+00
  0.2000E+00
  0.2000E+00
  0.2000E+00
  0.2000E+00
  0.2000E+00
  0.2000E+00
  0.2000E+00
  0.2000E+00
  0.2000E+00
  0.2000E+00
  0.7311E+00
  0.7311E+00
  0.7311E+00
  0.7311E+00
  0.7311E+00
  0.7311E+00
  0.7311E+00
  0.7311E+00
  0.7311E+00
  0.7311E+00
  0.7311E+00
  0.7311E+00
  0.7311E+00
  0.7311E+00
  0.7311E+00
  0.7308E+00
  0.7297E+00
  0.7262E+00
  0.7184E+00
  0.7061E+00
  0.6911E+00
  0.6755E+00
  0.6602E+00
  0.6458E+00
  0.6331E+00
  0.6208E+00
  0.6044E+00
  0.5864E+00
  0.5569E+00
  0.5045E+00
  0.4318E+00
  0.3595E+00
  0.3003E+00
  0.2561E+00
  0.2262E+00
  0.2095E+00
  0.2026E+00
  0.2005E+00
  0.2001E+00
  0.2000E+00
  0.2000E+00
  0.2000E+00
  0.2000E+00
  0.2000E+00
  0.2000E+00
  0.2000E+00
  0.2000E+00
  0.2000E+00
  0.2000E+00
  0.2000E+00
  0.2000E+00
  0.2000E+00
  0.2000E+00
  0.2000E+00
  0.2000E+00
  0.2000E+00
  0.2000E+00
  0.2000E+00
  0.2000E+00
  0.2000E+00
  0.7234E+00
  0.7234E+00
  0.7234E+00
  0.7234E+00
  0.7234E+00
  0.7234E+00
  0.7234E+00
  0.7234E+00
  0.7234E+00
  0.7234E+00
  0.7234E+00
  0.7234E+00
  0.7234E+00
  0.7234E+00
  0.7233E+00
  0.7231E+00
  0.7219E+00
  0.7184E+00
  0.7110E+00
  0.6994E+00
  0.6851E+00
  0.6690E+00
  0.6515E+00
  0.6320E+00
  0.6102E+00
  0.5797E+00
  0.5378E+00
  0.4821E+00
  0.4176E+00
  0.3568E+00
  0.3039E+00
  0.2621E+00
  0.2319E+00
  0.2133E+00
  0.2043E+00
  0.2010E+00
  0.2002E+00
  0.2000E+00
  0.2000E+00
  0.2000E+00
  0.2000E+00
  0.2000E+00
  0.2000E+00
  0.2000E+00
  0.2000E+00
  0.2000E+00
  0.2000E+00
  0.2000E+00
  0.2000E+00
  0.2000E+00
  0.2000E+00
  0.2000E+00
  0.2000E+00
  0.2000E+00
  0.2000E+00
  0.2000E+00
  0.2000E+00
  0.2000E+00
  0.2000E+00
  0.2000E+00
  0.5993E+00
  0.5993E+00
  0.5993E+00
  0.5993E+00
  0.5993E+00
  0.5993E+00
  0.5993E+00
  0.5993E+00
  0.5993E+00
  0.5993E+00
  0.5993E+00
  0.5993E+00
  0.5993E+00
  0.5993E+00
  0.5992E+00
  0.5990E+00
  0.5979E+00
  0.5948E+00
  0.5885E+00
  0.5782E+00
  0.5636E+00
  0.5437E+00
  0.5175E+00
  0.4854E+00
  0.4472E+00
  0.4052E+00
  0.3620E+00
  0.3201E+00
  0.2830E+00
  0.2518E+00
  0.2280E+00
  0.2126E+00
  0.2045E+00
  0.2012E+00
  0.2003E+00
  0.2000E+00
  0.2000E+00
  0.2000E+00
  0.2000E+00
  0.2000E+00
  0.2000E+00
  0.2000E+00
  0.2000E+00
  0.2000E+00
  0.2000E+00
  0.2000E+00
  0.2000E+00
  0.2000E+00
  0.2000E+00
  0.2000E+00
  0.2000E+00
  0.2000E+00
  0.2000E+00
  0.2000E+00
  0.2000E+00
  0.2000E+00
  0.2000E+00
  0.2000E+00
  0.2000E+00
  0.2000E+00
  0.3645E+00
  0.3645E+00
  0.3645E+00
  0.3645E+00
  0.3645E+00
  0.3645E+00
  0.3645E+00
  0.3645E+00
  0.3645E+00
  0.3645E+00
  0.3645E+00
  0.3645E+00
  0.3645E+00
  0.3645E+00
  0.3645E+00
  0.3643E+00
  0.3638E+00
  0.3624E+00
  0.3595E+00
  0.3543E+00
  0.3463E+00
  0.3350E+00
  0.3204E+00
  0.3032E+00
  0.2842E+00
  0.2645E+00
  0.2456E+00
  0.2289E+00
  0.2158E+00
  0.2073E+00
  0.2027E+00
  0.2008E+00
  0.2002E+00
  0.2000E+00
  0.2000E+00
  0.2000E+00
  0.2000E+00
  0.2000E+00
  0.2000E+00
  0.2000E+00
  0.2000E+00
  0.2000E+00
  0.2000E+00
  0.2000E+00
  0.2000E+00
  0.2000E+00
  0.2000E+00
  0.2000E+00
  0.2000E+00
  0.2000E+00
  0.2000E+00
  0.2000E+00
  0.2000E+00
  0.2000E+00
  0.2000E+00
  0.2000E+00
  0.2000E+00
  0.2000E+00
  0.2000E+00
  0.2000E+00
  0.2370E+00
  0.2370E+00
  0.2370E+00
  0.2370E+00
  0.2370E+00
  0.2370E+00
  0.2370E+00
  0.2370E+00
  0.2370E+00
  0.2370E+00
  0.2370E+00
  0.2370E+00
  0.2370E+00
  0.2370E+00
  0.2370E+00
  0.2370E+00
  0.2368E+00
  0.2365E+00
  0.2357E+00
  0.2341E+00
  0.2316E+00
  0.2280E+00
  0.2233E+00
  0.2180E+00
  0.2126E+00
  0.2078E+00
  0.2042E+00
  0.2019E+00
  0.2007E+00
  0.2002E+00
  0.2001E+00
  0.2000E+00
  0.2000E+00
  0.2000E+00
  0.2000E+00
  0.2000E+00
  0.2000E+00
  0.2000E+00
  0.2000E+00
  0.2000E+00
  0.2000E+00
  0.2000E+00
  0.2000E+00
  0.2000E+00
  0.2000E+00
  0.2000E+00
  0.2000E+00
  0.2000E+00
  0.2000E+00
  0.2000E+00
  0.2000E+00
  0.2000E+00
  0.2000E+00
  0.2000E+00
  0.2000E+00
  0.2000E+00
  0.2000E+00
  0.2000E+00
  0.2000E+00
  0.2000E+00
  0.2018E+00
  0.2018E+00
  0.2018E+00
  0.2018E+00
  0.2018E+00
  0.2018E+00
  0.2018E+00
  0.2018E+00
  0.2018E+00
  0.2018E+00
  0.2018E+00
  0.2018E+00
  0.2018E+00
  0.2018E+00
  0.2018E+00
  0.2018E+00
  0.2018E+00
  0.2018E+00
  0.2017E+00
  0.2015E+00
  0.2013E+00
  0.2010E+00
  0.2007E+00
  0.2005E+00
  0.2003E+00
  0.2001E+00
  0.2001E+00
  0.2000E+00
  0.2000E+00
  0.2000E+00
  0.2000E+00
  0.2000E+00
  0.2000E+00
  0.2000E+00
  0.2000E+00
  0.2000E+00
  0.2000E+00
  0.2000E+00
  0.2000E+00
  0.2000E+00
  0.2000E+00
  0.2000E+00
  0.2000E+00
  0.2000E+00
  0.2000E+00
  0.2000E+00
  0.2000E+00
  0.2000E+00
  0.2000E+00
  0.2000E+00
  0.2000E+00
  0.2000E+00
  0.2000E+00
  0.2000E+00
  0.2000E+00
  0.2000E+00
  0.2000E+00
  0.2000E+00
  0.2000E+00
  0.2000E+00
  0.2000E+00
  0.2000E+00
  0.2000E+00
  0.2000E+00