# vtk DataFile Version 3.0
vtk output
ASCII
DATASET RECTILINEAR_GRID
DIMENSIONS          61          61 1
X_COORDINATES    61 double
  0.0000E+00
  0.1667E+00
  0.3333E+00
  0.5000E+00
  0.6667E+00
  0.8333E+00
  0.1000E+01
  0.1167E+01
  0.1333E+01
  0.1500E+01
  0.1667E+01
  0.1833E+01
  0.2000E+01
  0.2167E+01
  0.2333E+01
  0.2500E+01
  0.2667E+01
  0.2833E+01
  0.3000E+01
  0.3167E+01
  0.3333E+01
  0.3500E+01
  0.3667E+01
  0.3833E+01
  0.4000E+01
  0.4167E+01
  0.4333E+01
  0.4500E+01
  0.4667E+01
  0.4833E+01
  0.5000E+01
  0.5167E+01
  0.5333E+01
  0.5500E+01
  0.5667E+01
  0.5833E+01
  0.6000E+01
  0.6167E+01
  0.6333E+01
  0.6500E+01
  0.6667E+01
  0.6833E+01
  0.7000E+01
  0.7167E+01
  0.7333E+01
  0.7500E+01
  0.7667E+01
  0.7833E+01
  0.8000E+01
  0.8167E+01
  0.8333E+01
  0.8500E+01
  0.8667E+01
  0.8833E+01
  0.9000E+01
  0.9167E+01
  0.9333E+01
  0.9500E+01
  0.9667E+01
  0.9833E+01
  0.1000E+02
Y_COORDINATES    61 double
  0.0000E+00
  0.1667E+00
  0.3333E+00
  0.5000E+00
  0.6667E+00
  0.8333E+00
  0.1000E+01
  0.1167E+01
  0.1333E+01
  0.1500E+01
  0.1667E+01
  0.1833E+01
  0.2000E+01
  0.2167E+01
  0.2333E+01
  0.2500E+01
  0.2667E+01
  0.2833E+01
  0.3000E+01
  0.3167E+01
  0.3333E+01
  0.3500E+01
  0.3667E+01
  0.3833E+01
  0.4000E+01
  0.4167E+01
  0.4333E+01
  0.4500E+01
  0.4667E+01
  0.4833E+01
  0.5000E+01
  0.5167E+01
  0.5333E+01
  0.5500E+01
  0.5667E+01
  0.5833E+01
  0.6000E+01
  0.6167E+01
  0.6333E+01
  0.6500E+01
  0.6667E+01
  0.6833E+01
  0.7000E+01
  0.7167E+01
  0.7333E+01
  0.7500E+01
  0.7667E+01
  0.7833E+01
  0.8000E+01
  0.8167E+01
  0.8333E+01
  0.8500E+01
  0.8667E+01
  0.8833E+01
  0.9000E+01
  0.9167E+01
  0.9333E+01
  0.9500E+01
  0.9667E+01
  0.9833E+01
  0.1000E+02
Z_COORDINATES 1 double
0
CELL_DATA                 3600
FIELD FieldData 4
density 1                 3600 double
  0.5292E+01
  0.5292E+01
  0.5292E+01
  0.5292E+01
  0.5292E+01
  0.5292E+01
  0.5292E+01
  0.5292E+01
  0.5292E+01
  0.5292E+01
  0.5292E+01
  0.5291E+01
  0.5288E+01
  0.5277E+01
  0.5241E+01
  0.5159E+01
  0.5013E+01
  0.4810E+01
  0.4576E+01
  0.4334E+01
  0.4095E+01
  0.3864E+01
  0.3645E+01
  0.3438E+01
  0.3245E+01
  0.3063E+01
  0.2893E+01
  0.2733E+01
  0.2582E+01
  0.2440E+01
  0.2305E+01
  0.2177E+01
  0.2056E+01
  0.1940E+01
  0.1830E+01
  0.1725E+01
  0.1626E+01
  0.1537E+01
  0.1458E+01
  0.1396E+01
  0.1358E+01
  0.1355E+01
  0.1367E+01
  0.1379E+01
  0.1379E+01
  0.1359E+01
  0.1269E+01
  0.1118E+01
  0.9429E+00
  0.7906E+00
  0.6900E+00
  0.6535E+00
  0.6522E+00
  0.6643E+00
  0.6683E+00
  0.5909E+00
  0.3780E+00
  0.2451E+00
  0.2030E+00
  0.2000E+00
  0.5225E+01
  0.5225E+01
  0.5225E+01
  0.5225E+01
  0.5225E+01
  0.5225E+01
  0.5225E+01
  0.5225E+01
  0.5225E+01
  0.5225E+01
  0.5225E+01
  0.5224E+01
  0.5221E+01
  0.5210E+01
  0.5175E+01
  0.5095E+01
  0.4951E+01
  0.4750E+01
  0.4518E+01
  0.4277E+01
  0.4039E+01
  0.3809E+01
  0.3590E+01
  0.3384E+01
  0.3190E+01
  0.3009E+01
  0.2838E+01
  0.2678E+01
  0.2527E+01
  0.2384E+01
  0.2249E+01
  0.2121E+01
  0.2000E+01
  0.1885E+01
  0.1775E+01
  0.1672E+01
  0.1575E+01
  0.1487E+01
  0.1410E+01
  0.1350E+01
  0.1313E+01
  0.1309E+01
  0.1321E+01
  0.1334E+01
  0.1334E+01
  0.1315E+01
  0.1232E+01
  0.1091E+01
  0.9264E+00
  0.7822E+00
  0.6859E+00
  0.6509E+00
  0.6500E+00
  0.6629E+00
  0.6655E+00
  0.5811E+00
  0.3703E+00
  0.2426E+00
  0.2027E+00
  0.2000E+00
  0.5088E+01
  0.5088E+01
  0.5088E+01
  0.5088E+01
  0.5088E+01
  0.5088E+01
  0.5088E+01
  0.5088E+01
  0.5088E+01
  0.5088E+01
  0.5088E+01
  0.5087E+01
  0.5084E+01
  0.5074E+01
  0.5041E+01
  0.4963E+01
  0.4824E+01
  0.4628E+01
  0.4400E+01
  0.4162E+01
  0.3927E+01
  0.3699E+01
  0.3482E+01
  0.3277E+01
  0.3084E+01
  0.2903E+01
  0.2734E+01
  0.2575E+01
  0.2424E+01
  0.2282E+01
  0.2149E+01
  0.2023E+01
  0.1903E+01
  0.1790E+01
  0.1683E+01
  0.1582E+01
  0.1488E+01
  0.1404E+01
  0.1330E+01
  0.1272E+01
  0.1237E+01
  0.1233E+01
  0.1243E+01
  0.1256E+01
  0.1257E+01
  0.1241E+01
  0.1170E+01
  0.1046E+01
  0.8980E+00
  0.7662E+00
  0.6761E+00
  0.6450E+00
  0.6451E+00
  0.6596E+00
  0.6606E+00
  0.5656E+00
  0.3579E+00
  0.2381E+00
  0.2022E+00
  0.2000E+00
  0.4886E+01
  0.4886E+01
  0.4886E+01
  0.4886E+01
  0.4886E+01
  0.4886E+01
  0.4886E+01
  0.4886E+01
  0.4886E+01
  0.4886E+01
  0.4886E+01
  0.4886E+01
  0.4883E+01
  0.4873E+01
  0.4843E+01
  0.4770E+01
  0.4638E+01
  0.4449E+01
  0.4228E+01
  0.3996E+01
  0.3765E+01
  0.3542E+01
  0.3329E+01
  0.3128E+01
  0.2939E+01
  0.2762E+01
  0.2596E+01
  0.2440E+01
  0.2293E+01
  0.2154E+01
  0.2024E+01
  0.1902E+01
  0.1786E+01
  0.1677E+01
  0.1574E+01
  0.1477E+01
  0.1388E+01
  0.1307E+01
  0.1237E+01
  0.1183E+01
  0.1149E+01
  0.1144E+01
  0.1151E+01
  0.1164E+01
  0.1167E+01
  0.1156E+01
  0.1099E+01
  0.9940E+00
  0.8642E+00
  0.7440E+00
  0.6602E+00
  0.6351E+00
  0.6374E+00
  0.6546E+00
  0.6528E+00
  0.5425E+00
  0.3407E+00
  0.2317E+00
  0.2015E+00
  0.2000E+00
  0.4639E+01
  0.4639E+01
  0.4639E+01
  0.4639E+01
  0.4639E+01
  0.4639E+01
  0.4639E+01
  0.4639E+01
  0.4639E+01
  0.4639E+01
  0.4639E+01
  0.4639E+01
  0.4637E+01
  0.4628E+01
  0.4601E+01
  0.4534E+01
  0.4410E+01
  0.4231E+01
  0.4019E+01
  0.3796E+01
  0.3573E+01
  0.3357E+01
  0.3151E+01
  0.2956E+01
  0.2773E+01
  0.2602E+01
  0.2441E+01
  0.2290E+01
  0.2149E+01
  0.2016E+01
  0.1891E+01
  0.1774E+01
  0.1664E+01
  0.1560E+01
  0.1462E+01
  0.1370E+01
  0.1286E+01
  0.1210E+01
  0.1144E+01
  0.1093E+01
  0.1060E+01
  0.1054E+01
  0.1057E+01
  0.1070E+01
  0.1076E+01
  0.1072E+01
  0.1034E+01
  0.9440E+00
  0.8283E+00
  0.7172E+00
  0.6407E+00
  0.6227E+00
  0.6277E+00
  0.6472E+00
  0.6401E+00
  0.5112E+00
  0.3200E+00
  0.2244E+00
  0.2010E+00
  0.2000E+00
  0.4373E+01
  0.4373E+01
  0.4373E+01
  0.4373E+01
  0.4373E+01
  0.4373E+01
  0.4373E+01
  0.4373E+01
  0.4373E+01
  0.4373E+01
  0.4373E+01
  0.4372E+01
  0.4371E+01
  0.4363E+01
  0.4339E+01
  0.4279E+01
  0.4165E+01
  0.3998E+01
  0.3796E+01
  0.3583E+01
  0.3369E+01
  0.3162E+01
  0.2965E+01
  0.2778E+01
  0.2602E+01
  0.2438E+01
  0.2285E+01
  0.2141E+01
  0.2006E+01
  0.1879E+01
  0.1760E+01
  0.1649E+01
  0.1544E+01
  0.1446E+01
  0.1353E+01
  0.1267E+01
  0.1187E+01
  0.1116E+01
  0.1054E+01
  0.1005E+01
  0.9730E+00
  0.9650E+00
  0.9678E+00
  0.9807E+00
  0.9934E+00
  0.9946E+00
  0.9764E+00
  0.9005E+00
  0.7919E+00
  0.6877E+00
  0.6203E+00
  0.6097E+00
  0.6192E+00
  0.6386E+00
  0.6222E+00
  0.4719E+00
  0.2976E+00
  0.2172E+00
  0.2005E+00
  0.2000E+00
  0.4106E+01
  0.4106E+01
  0.4106E+01
  0.4106E+01
  0.4106E+01
  0.4106E+01
  0.4106E+01
  0.4106E+01
  0.4106E+01
  0.4106E+01
  0.4106E+01
  0.4106E+01
  0.4104E+01
  0.4098E+01
  0.4077E+01
  0.4024E+01
  0.3920E+01
  0.3765E+01
  0.3575E+01
  0.3372E+01
  0.3169E+01
  0.2971E+01
  0.2783E+01
  0.2604E+01
  0.2437E+01
  0.2281E+01
  0.2135E+01
  0.1998E+01
  0.1869E+01
  0.1749E+01
  0.1637E+01
  0.1531E+01
  0.1432E+01
  0.1339E+01
  0.1251E+01
  0.1169E+01
  0.1094E+01
  0.1027E+01
  0.9685E+00
  0.9228E+00
  0.8910E+00
  0.8825E+00
  0.8850E+00
  0.8998E+00
  0.9221E+00
  0.9336E+00
  0.9252E+00
  0.8621E+00
  0.7551E+00
  0.6558E+00
  0.6009E+00
  0.5969E+00
  0.6124E+00
  0.6316E+00
  0.5984E+00
  0.4254E+00
  0.2751E+00
  0.2109E+00
  0.2002E+00
  0.2000E+00
  0.3850E+01
  0.3850E+01
  0.3850E+01
  0.3850E+01
  0.3850E+01
  0.3850E+01
  0.3850E+01
  0.3850E+01
  0.3850E+01
  0.3850E+01
  0.3850E+01
  0.3850E+01
  0.3848E+01
  0.3843E+01
  0.3825E+01
  0.3778E+01
  0.3685E+01
  0.3541E+01
  0.3363E+01
  0.3171E+01
  0.2978E+01
  0.2790E+01
  0.2610E+01
  0.2440E+01
  0.2281E+01
  0.2132E+01
  0.1993E+01
  0.1863E+01
  0.1742E+01
  0.1627E+01
  0.1521E+01
  0.1421E+01
  0.1327E+01
  0.1239E+01
  0.1156E+01
  0.1079E+01
  0.1008E+01
  0.9448E+00
  0.8895E+00
  0.8460E+00
  0.8147E+00
  0.8079E+00
  0.8110E+00
  0.8309E+00
  0.8674E+00
  0.8924E+00
  0.8858E+00
  0.8226E+00
  0.7162E+00
  0.6236E+00
  0.5844E+00
  0.5855E+00
  0.6084E+00
  0.6210E+00
  0.5609E+00
  0.3803E+00
  0.2539E+00
  0.2060E+00
  0.2001E+00
  0.2000E+00
  0.3607E+01
  0.3607E+01
  0.3607E+01
  0.3607E+01
  0.3607E+01
  0.3607E+01
  0.3607E+01
  0.3607E+01
  0.3607E+01
  0.3607E+01
  0.3607E+01
  0.3607E+01
  0.3606E+01
  0.3602E+01
  0.3586E+01
  0.3546E+01
  0.3462E+01
  0.3330E+01
  0.3163E+01
  0.2982E+01
  0.2798E+01
  0.2619E+01
  0.2448E+01
  0.2286E+01
  0.2135E+01
  0.1993E+01
  0.1861E+01
  0.1738E+01
  0.1622E+01
  0.1514E+01
  0.1413E+01
  0.1319E+01
  0.1230E+01
  0.1146E+01
  0.1068E+01
  0.9953E+00
  0.9286E+00
  0.8687E+00
  0.8164E+00
  0.7749E+00
  0.7452E+00
  0.7410E+00
  0.7478E+00
  0.7789E+00
  0.8365E+00
  0.8678E+00
  0.8562E+00
  0.7789E+00
  0.6728E+00
  0.5915E+00
  0.5706E+00
  0.5782E+00
  0.6057E+00
  0.6066E+00
  0.5094E+00
  0.3359E+00
  0.2353E+00
  0.2029E+00
  0.2000E+00
  0.2000E+00
  0.3378E+01
  0.3378E+01
  0.3378E+01
  0.3378E+01
  0.3378E+01
  0.3378E+01
  0.3378E+01
  0.3378E+01
  0.3378E+01
  0.3378E+01
  0.3378E+01
  0.3378E+01
  0.3377E+01
  0.3374E+01
  0.3361E+01
  0.3326E+01
  0.3251E+01
  0.3130E+01
  0.2975E+01
  0.2803E+01
  0.2629E+01
  0.2459E+01
  0.2296E+01
  0.2142E+01
  0.1998E+01
  0.1863E+01
  0.1738E+01
  0.1621E+01
  0.1511E+01
  0.1408E+01
  0.1313E+01
  0.1223E+01
  0.1139E+01
  0.1061E+01
  0.9865E+00
  0.9177E+00
  0.8549E+00
  0.7983E+00
  0.7490E+00
  0.7082E+00
  0.6841E+00
  0.6839E+00
  0.6991E+00
  0.7519E+00
  0.8308E+00
  0.8518E+00
  0.8242E+00
  0.7286E+00
  0.6268E+00
  0.5652E+00
  0.5596E+00
  0.5762E+00
  0.6006E+00
  0.5829E+00
  0.4471E+00
  0.2965E+00
  0.2205E+00
  0.2012E+00
  0.2000E+00
  0.2000E+00
  0.3162E+01
  0.3162E+01
  0.3162E+01
  0.3162E+01
  0.3162E+01
  0.3162E+01
  0.3162E+01
  0.3162E+01
  0.3162E+01
  0.3162E+01
  0.3162E+01
  0.3162E+01
  0.3161E+01
  0.3159E+01
  0.3148E+01
  0.3118E+01
  0.3052E+01
  0.2942E+01
  0.2797E+01
  0.2635E+01
  0.2470E+01
  0.2308E+01
  0.2153E+01
  0.2007E+01
  0.1869E+01
  0.1742E+01
  0.1622E+01
  0.1511E+01
  0.1407E+01
  0.1310E+01
  0.1219E+01
  0.1135E+01
  0.1055E+01
  0.9806E+00
  0.9107E+00
  0.8459E+00
  0.7867E+00
  0.7331E+00
  0.6867E+00
  0.6460E+00
  0.6340E+00
  0.6387E+00
  0.6761E+00
  0.7615E+00
  0.8348E+00
  0.8372E+00
  0.7785E+00
  0.6727E+00
  0.5818E+00
  0.5473E+00
  0.5506E+00
  0.5777E+00
  0.5924E+00
  0.5402E+00
  0.3827E+00
  0.2632E+00
  0.2102E+00
  0.2004E+00
  0.2000E+00
  0.2000E+00
  0.2959E+01
  0.2959E+01
  0.2959E+01
  0.2959E+01
  0.2959E+01
  0.2959E+01
  0.2959E+01
  0.2959E+01
  0.2959E+01
  0.2959E+01
  0.2959E+01
  0.2959E+01
  0.2958E+01
  0.2956E+01
  0.2947E+01
  0.2921E+01
  0.2864E+01
  0.2764E+01
  0.2630E+01
  0.2477E+01
  0.2321E+01
  0.2167E+01
  0.2019E+01
  0.1880E+01
  0.1749E+01
  0.1627E+01
  0.1514E+01
  0.1408E+01
  0.1310E+01
  0.1218E+01
  0.1132E+01
  0.1052E+01
  0.9769E+00
  0.9065E+00
  0.8405E+00
  0.7795E+00
  0.7235E+00
  0.6731E+00
  0.6271E+00
  0.5950E+00
  0.5931E+00
  0.6180E+00
  0.6893E+00
  0.7914E+00
  0.8295E+00
  0.8092E+00
  0.7189E+00
  0.6141E+00
  0.5446E+00
  0.5347E+00
  0.5492E+00
  0.5788E+00
  0.5737E+00
  0.4748E+00
  0.3267E+00
  0.2370E+00
  0.2042E+00
  0.2001E+00
  0.2000E+00
  0.2000E+00
  0.2767E+01
  0.2767E+01
  0.2767E+01
  0.2767E+01
  0.2767E+01
  0.2767E+01
  0.2767E+01
  0.2767E+01
  0.2767E+01
  0.2767E+01
  0.2767E+01
  0.2767E+01
  0.2767E+01
  0.2765E+01
  0.2758E+01
  0.2736E+01
  0.2686E+01
  0.2596E+01
  0.2472E+01
  0.2329E+01
  0.2180E+01
  0.2034E+01
  0.1894E+01
  0.1761E+01
  0.1636E+01
  0.1521E+01
  0.1413E+01
  0.1313E+01
  0.1219E+01
  0.1132E+01
  0.1051E+01
  0.9751E+00
  0.9042E+00
  0.8376E+00
  0.7754E+00
  0.7178E+00
  0.6649E+00
  0.6162E+00
  0.5713E+00
  0.5605E+00
  0.5763E+00
  0.6323E+00
  0.7312E+00
  0.8108E+00
  0.8132E+00
  0.7551E+00
  0.6479E+00
  0.5571E+00
  0.5229E+00
  0.5278E+00
  0.5560E+00
  0.5737E+00
  0.5354E+00
  0.3992E+00
  0.2809E+00
  0.2185E+00
  0.2014E+00
  0.2000E+00
  0.2000E+00
  0.2000E+00
  0.2587E+01
  0.2587E+01
  0.2587E+01
  0.2587E+01
  0.2587E+01
  0.2587E+01
  0.2587E+01
  0.2587E+01
  0.2587E+01
  0.2587E+01
  0.2587E+01
  0.2587E+01
  0.2587E+01
  0.2585E+01
  0.2579E+01
  0.2561E+01
  0.2518E+01
  0.2438E+01
  0.2324E+01
  0.2189E+01
  0.2049E+01
  0.1909E+01
  0.1776E+01
  0.1649E+01
  0.1531E+01
  0.1421E+01
  0.1319E+01
  0.1223E+01
  0.1135E+01
  0.1052E+01
  0.9751E+00
  0.9035E+00
  0.8363E+00
  0.7734E+00
  0.7147E+00
  0.6601E+00
  0.6097E+00
  0.5599E+00
  0.5360E+00
  0.5466E+00
  0.5910E+00
  0.6783E+00
  0.7813E+00
  0.8057E+00
  0.7734E+00
  0.6741E+00
  0.5737E+00
  0.5168E+00
  0.5130E+00
  0.5312E+00
  0.5596E+00
  0.5538E+00
  0.4657E+00
  0.3337E+00
  0.2462E+00
  0.2076E+00
  0.2004E+00
  0.2000E+00
  0.2000E+00
  0.2000E+00
  0.2417E+01
  0.2417E+01
  0.2417E+01
  0.2417E+01
  0.2417E+01
  0.2417E+01
  0.2417E+01
  0.2417E+01
  0.2417E+01
  0.2417E+01
  0.2417E+01
  0.2417E+01
  0.2417E+01
  0.2416E+01
  0.2411E+01
  0.2396E+01
  0.2359E+01
  0.2288E+01
  0.2183E+01
  0.2057E+01
  0.1924E+01
  0.1792E+01
  0.1665E+01
  0.1545E+01
  0.1432E+01
  0.1327E+01
  0.1230E+01
  0.1139E+01
  0.1055E+01
  0.9769E+00
  0.9042E+00
  0.8363E+00
  0.7729E+00
  0.7134E+00
  0.6575E+00
  0.6061E+00
  0.5535E+00
  0.5208E+00
  0.5262E+00
  0.5600E+00
  0.6339E+00
  0.7432E+00
  0.7924E+00
  0.7765E+00
  0.6912E+00
  0.5871E+00
  0.5158E+00
  0.5004E+00
  0.5120E+00
  0.5421E+00
  0.5521E+00
  0.5068E+00
  0.3854E+00
  0.2821E+00
  0.2223E+00
  0.2025E+00
  0.2001E+00
  0.2000E+00
  0.2000E+00
  0.2000E+00
  0.2257E+01
  0.2257E+01
  0.2257E+01
  0.2257E+01
  0.2257E+01
  0.2257E+01
  0.2257E+01
  0.2257E+01
  0.2257E+01
  0.2257E+01
  0.2257E+01
  0.2257E+01
  0.2257E+01
  0.2256E+01
  0.2252E+01
  0.2240E+01
  0.2208E+01
  0.2145E+01
  0.2050E+01
  0.1933E+01
  0.1807E+01
  0.1682E+01
  0.1561E+01
  0.1446E+01
  0.1339E+01
  0.1239E+01
  0.1146E+01
  0.1060E+01
  0.9806E+00
  0.9064E+00
  0.8375E+00
  0.7734E+00
  0.7134E+00
  0.6567E+00
  0.6042E+00
  0.5512E+00
  0.5116E+00
  0.5128E+00
  0.5410E+00
  0.6062E+00
  0.7094E+00
  0.7763E+00
  0.7718E+00
  0.7021E+00
  0.5958E+00
  0.5181E+00
  0.4937E+00
  0.4994E+00
  0.5260E+00
  0.5433E+00
  0.5232E+00
  0.4279E+00
  0.3190E+00
  0.2443E+00
  0.2086E+00
  0.2006E+00
  0.2000E+00
  0.2000E+00
  0.2000E+00
  0.2000E+00
  0.2105E+01
  0.2105E+01
  0.2105E+01
  0.2105E+01
  0.2105E+01
  0.2105E+01
  0.2105E+01
  0.2105E+01
  0.2105E+01
  0.2105E+01
  0.2105E+01
  0.2105E+01
  0.2105E+01
  0.2105E+01
  0.2102E+01
  0.2092E+01
  0.2065E+01
  0.2010E+01
  0.1924E+01
  0.1815E+01
  0.1696E+01
  0.1577E+01
  0.1462E+01
  0.1353E+01
  0.1251E+01
  0.1156E+01
  0.1068E+01
  0.9864E+00
  0.9107E+00
  0.8404E+00
  0.7753E+00
  0.7147E+00
  0.6575E+00
  0.6043E+00
  0.5499E+00
  0.5082E+00
  0.5062E+00
  0.5247E+00
  0.5800E+00
  0.6825E+00
  0.7699E+00
  0.7721E+00
  0.7095E+00
  0.6026E+00
  0.5213E+00
  0.4920E+00
  0.4943E+00
  0.5144E+00
  0.5331E+00
  0.5253E+00
  0.4560E+00
  0.3510E+00
  0.2687E+00
  0.2197E+00
  0.2026E+00
  0.2001E+00
  0.2000E+00
  0.2000E+00
  0.2000E+00
  0.2000E+00
  0.1964E+01
  0.1964E+01
  0.1964E+01
  0.1964E+01
  0.1964E+01
  0.1964E+01
  0.1964E+01
  0.1964E+01
  0.1964E+01
  0.1964E+01
  0.1964E+01
  0.1964E+01
  0.1963E+01
  0.1963E+01
  0.1961E+01
  0.1953E+01
  0.1931E+01
  0.1883E+01
  0.1805E+01
  0.1704E+01
  0.1592E+01
  0.1480E+01
  0.1370E+01
  0.1266E+01
  0.1169E+01
  0.1079E+01
  0.9952E+00
  0.9177E+00
  0.8458E+00
  0.7794E+00
  0.7178E+00
  0.6600E+00
  0.6060E+00
  0.5508E+00
  0.5079E+00
  0.5040E+00
  0.5187E+00
  0.5654E+00
  0.6510E+00
  0.7494E+00
  0.7673E+00
  0.7219E+00
  0.6134E+00
  0.5279E+00
  0.4942E+00
  0.4938E+00
  0.5082E+00
  0.5273E+00
  0.5241E+00
  0.4701E+00
  0.3741E+00
  0.2908E+00
  0.2338E+00
  0.2069E+00
  0.2006E+00
  0.2000E+00
  0.2000E+00
  0.2000E+00
  0.2000E+00
  0.2000E+00
  0.1832E+01
  0.1832E+01
  0.1832E+01
  0.1832E+01
  0.1832E+01
  0.1832E+01
  0.1832E+01
  0.1832E+01
  0.1832E+01
  0.1832E+01
  0.1832E+01
  0.1832E+01
  0.1832E+01
  0.1832E+01
  0.1830E+01
  0.1824E+01
  0.1805E+01
  0.1764E+01
  0.1694E+01
  0.1601E+01
  0.1496E+01
  0.1390E+01
  0.1286E+01
  0.1187E+01
  0.1094E+01
  0.1008E+01
  0.9285E+00
  0.8548E+00
  0.7867E+00
  0.7235E+00
  0.6649E+00
  0.6096E+00
  0.5545E+00
  0.5115E+00
  0.5066E+00
  0.5185E+00
  0.5577E+00
  0.6403E+00
  0.7402E+00
  0.7617E+00
  0.7261E+00
  0.6244E+00
  0.5367E+00
  0.5005E+00
  0.4971E+00
  0.5083E+00
  0.5254E+00
  0.5232E+00
  0.4778E+00
  0.3892E+00
  0.3077E+00
  0.2477E+00
  0.2132E+00
  0.2018E+00
  0.2001E+00
  0.2000E+00
  0.2000E+00
  0.2000E+00
  0.2000E+00
  0.2000E+00
  0.1713E+01
  0.1713E+01
  0.1713E+01
  0.1713E+01
  0.1713E+01
  0.1713E+01
  0.1713E+01
  0.1713E+01
  0.1713E+01
  0.1713E+01
  0.1713E+01
  0.1713E+01
  0.1713E+01
  0.1713E+01
  0.1711E+01
  0.1706E+01
  0.1691E+01
  0.1656E+01
  0.1593E+01
  0.1508E+01
  0.1410E+01
  0.1309E+01
  0.1210E+01
  0.1115E+01
  0.1027E+01
  0.9446E+00
  0.8686E+00
  0.7982E+00
  0.7330E+00
  0.6730E+00
  0.6160E+00
  0.5593E+00
  0.5205E+00
  0.5122E+00
  0.5261E+00
  0.5672E+00
  0.6395E+00
  0.7382E+00
  0.7672E+00
  0.7391E+00
  0.6389E+00
  0.5464E+00
  0.5078E+00
  0.5030E+00
  0.5122E+00
  0.5266E+00
  0.5239E+00
  0.4825E+00
  0.3985E+00
  0.3192E+00
  0.2589E+00
  0.2203E+00
  0.2039E+00
  0.2003E+00
  0.2000E+00
  0.2000E+00
  0.2000E+00
  0.2000E+00
  0.2000E+00
  0.2000E+00
  0.1608E+01
  0.1608E+01
  0.1608E+01
  0.1608E+01
  0.1608E+01
  0.1608E+01
  0.1608E+01
  0.1608E+01
  0.1608E+01
  0.1608E+01
  0.1608E+01
  0.1608E+01
  0.1608E+01
  0.1608E+01
  0.1607E+01
  0.1603E+01
  0.1591E+01
  0.1561E+01
  0.1505E+01
  0.1426E+01
  0.1334E+01
  0.1238E+01
  0.1144E+01
  0.1053E+01
  0.9684E+00
  0.8894E+00
  0.8163E+00
  0.7489E+00
  0.6866E+00
  0.6271E+00
  0.5710E+00
  0.5373E+00
  0.5249E+00
  0.5396E+00
  0.5806E+00
  0.6563E+00
  0.7446E+00
  0.7683E+00
  0.7472E+00
  0.6533E+00
  0.5579E+00
  0.5149E+00
  0.5096E+00
  0.5171E+00
  0.5294E+00
  0.5260E+00
  0.4859E+00
  0.4041E+00
  0.3264E+00
  0.2668E+00
  0.2266E+00
  0.2065E+00
  0.2008E+00
  0.2000E+00
  0.2000E+00
  0.2000E+00
  0.2000E+00
  0.2000E+00
  0.2000E+00
  0.2000E+00
  0.1524E+01
  0.1524E+01
  0.1524E+01
  0.1524E+01
  0.1524E+01
  0.1524E+01
  0.1524E+01
  0.1524E+01
  0.1524E+01
  0.1524E+01
  0.1524E+01
  0.1524E+01
  0.1524E+01
  0.1523E+01
  0.1523E+01
  0.1520E+01
  0.1510E+01
  0.1484E+01
  0.1435E+01
  0.1363E+01
  0.1276E+01
  0.1184E+01
  0.1093E+01
  0.1005E+01
  0.9227E+00
  0.8459E+00
  0.7749E+00
  0.7084E+00
  0.6456E+00
  0.5948E+00
  0.5607E+00
  0.5456E+00
  0.5601E+00
  0.6046E+00
  0.6776E+00
  0.7513E+00
  0.7659E+00
  0.7419E+00
  0.6536E+00
  0.5633E+00
  0.5211E+00
  0.5156E+00
  0.5219E+00
  0.5321E+00
  0.5283E+00
  0.4878E+00
  0.4066E+00
  0.3304E+00
  0.2718E+00
  0.2313E+00
  0.2091E+00
  0.2015E+00
  0.2001E+00
  0.2000E+00
  0.2000E+00
  0.2000E+00
  0.2000E+00
  0.2000E+00
  0.2000E+00
  0.2000E+00
  0.1466E+01
  0.1466E+01
  0.1466E+01
  0.1466E+01
  0.1466E+01
  0.1466E+01
  0.1466E+01
  0.1466E+01
  0.1466E+01
  0.1466E+01
  0.1466E+01
  0.1466E+01
  0.1466E+01
  0.1466E+01
  0.1465E+01
  0.1463E+01
  0.1454E+01
  0.1432E+01
  0.1389E+01
  0.1323E+01
  0.1240E+01
  0.1150E+01
  0.1060E+01
  0.9730E+00
  0.8910E+00
  0.8145E+00
  0.7452E+00
  0.6840E+00
  0.6346E+00
  0.5936E+00
  0.5761E+00
  0.5904E+00
  0.6363E+00
  0.7091E+00
  0.7645E+00
  0.7650E+00
  0.7304E+00
  0.6401E+00
  0.5578E+00
  0.5214E+00
  0.5198E+00
  0.5263E+00
  0.5350E+00
  0.5305E+00
  0.4888E+00
  0.4074E+00
  0.3319E+00
  0.2745E+00
  0.2344E+00
  0.2112E+00
  0.2022E+00
  0.2002E+00
  0.2000E+00
  0.2000E+00
  0.2000E+00
  0.2000E+00
  0.2000E+00
  0.2000E+00
  0.2000E+00
  0.2000E+00
  0.1451E+01
  0.1451E+01
  0.1451E+01
  0.1451E+01
  0.1451E+01
  0.1451E+01
  0.1451E+01
  0.1451E+01
  0.1451E+01
  0.1451E+01
  0.1451E+01
  0.1451E+01
  0.1451E+01
  0.1451E+01
  0.1451E+01
  0.1449E+01
  0.1443E+01
  0.1424E+01
  0.1383E+01
  0.1318E+01
  0.1235E+01
  0.1145E+01
  0.1054E+01
  0.9650E+00
  0.8825E+00
  0.8080E+00
  0.7409E+00
  0.6838E+00
  0.6387E+00
  0.6181E+00
  0.6318E+00
  0.6780E+00
  0.7431E+00
  0.7798E+00
  0.7697E+00
  0.7191E+00
  0.6254E+00
  0.5462E+00
  0.5150E+00
  0.5166E+00
  0.5266E+00
  0.5369E+00
  0.5326E+00
  0.4901E+00
  0.4083E+00
  0.3328E+00
  0.2758E+00
  0.2362E+00
  0.2127E+00
  0.2028E+00
  0.2004E+00
  0.2000E+00
  0.2000E+00
  0.2000E+00
  0.2000E+00
  0.2000E+00
  0.2000E+00
  0.2000E+00
  0.2000E+00
  0.2000E+00
  0.1451E+01
  0.1451E+01
  0.1451E+01
  0.1451E+01
  0.1451E+01
  0.1451E+01
  0.1451E+01
  0.1451E+01
  0.1451E+01
  0.1451E+01
  0.1451E+01
  0.1451E+01
  0.1451E+01
  0.1451E+01
  0.1451E+01
  0.1449E+01
  0.1444E+01
  0.1427E+01
  0.1391E+01
  0.1328E+01
  0.1244E+01
  0.1151E+01
  0.1057E+01
  0.9678E+00
  0.8850E+00
  0.8110E+00
  0.7477E+00
  0.6989E+00
  0.6754E+00
  0.6887E+00
  0.7309E+00
  0.7810E+00
  0.7924E+00
  0.7746E+00
  0.7101E+00
  0.6138E+00
  0.5362E+00
  0.5075E+00
  0.5103E+00
  0.5219E+00
  0.5349E+00
  0.5326E+00
  0.4913E+00
  0.4088E+00
  0.3331E+00
  0.2764E+00
  0.2370E+00
  0.2136E+00
  0.2033E+00
  0.2005E+00
  0.2000E+00
  0.2000E+00
  0.2000E+00
  0.2000E+00
  0.2000E+00
  0.2000E+00
  0.2000E+00
  0.2000E+00
  0.2000E+00
  0.2000E+00
  0.1457E+01
  0.1457E+01
  0.1457E+01
  0.1457E+01
  0.1457E+01
  0.1457E+01
  0.1457E+01
  0.1457E+01
  0.1457E+01
  0.1457E+01
  0.1457E+01
  0.1457E+01
  0.1457E+01
  0.1457E+01
  0.1457E+01
  0.1455E+01
  0.1450E+01
  0.1435E+01
  0.1401E+01
  0.1340E+01
  0.1257E+01
  0.1165E+01
  0.1070E+01
  0.9808E+00
  0.8999E+00
  0.8308E+00
  0.7788E+00
  0.7512E+00
  0.7609E+00
  0.7915E+00
  0.8119E+00
  0.8037E+00
  0.7769E+00
  0.7003E+00
  0.6045E+00
  0.5291E+00
  0.5009E+00
  0.5039E+00
  0.5170E+00
  0.5322E+00
  0.5305E+00
  0.4898E+00
  0.4087E+00
  0.3334E+00
  0.2765E+00
  0.2374E+00
  0.2140E+00
  0.2036E+00
  0.2006E+00
  0.2001E+00
  0.2000E+00
  0.2000E+00
  0.2000E+00
  0.2000E+00
  0.2000E+00
  0.2000E+00
  0.2000E+00
  0.2000E+00
  0.2000E+00
  0.2000E+00
  0.1458E+01
  0.1458E+01
  0.1458E+01
  0.1458E+01
  0.1458E+01
  0.1458E+01
  0.1458E+01
  0.1458E+01
  0.1458E+01
  0.1458E+01
  0.1458E+01
  0.1458E+01
  0.1458E+01
  0.1458E+01
  0.1458E+01
  0.1457E+01
  0.1451E+01
  0.1436E+01
  0.1401E+01
  0.1341E+01
  0.1259E+01
  0.1167E+01
  0.1076E+01
  0.9935E+00
  0.9220E+00
  0.8674E+00
  0.8362E+00
  0.8307E+00
  0.8349E+00
  0.8288E+00
  0.8143E+00
  0.7733E+00
  0.6902E+00
  0.5948E+00
  0.5218E+00
  0.4953E+00
  0.4984E+00
  0.5122E+00
  0.5292E+00
  0.5286E+00
  0.4893E+00
  0.4078E+00
  0.3329E+00
  0.2764E+00
  0.2374E+00
  0.2142E+00
  0.2037E+00
  0.2006E+00
  0.2001E+00
  0.2000E+00
  0.2000E+00
  0.2000E+00
  0.2000E+00
  0.2000E+00
  0.2000E+00
  0.2000E+00
  0.2000E+00
  0.2000E+00
  0.2000E+00
  0.2000E+00
  0.1443E+01
  0.1443E+01
  0.1443E+01
  0.1443E+01
  0.1443E+01
  0.1443E+01
  0.1443E+01
  0.1443E+01
  0.1443E+01
  0.1443E+01
  0.1443E+01
  0.1443E+01
  0.1443E+01
  0.1442E+01
  0.1442E+01
  0.1440E+01
  0.1435E+01
  0.1418E+01
  0.1383E+01
  0.1323E+01
  0.1243E+01
  0.1157E+01
  0.1072E+01
  0.9944E+00
  0.9336E+00
  0.8923E+00
  0.8677E+00
  0.8514E+00
  0.8372E+00
  0.8093E+00
  0.7550E+00
  0.6747E+00
  0.5861E+00
  0.5171E+00
  0.4918E+00
  0.4942E+00
  0.5087E+00
  0.5266E+00
  0.5262E+00
  0.4881E+00
  0.4074E+00
  0.3327E+00
  0.2762E+00
  0.2373E+00
  0.2142E+00
  0.2038E+00
  0.2006E+00
  0.2001E+00
  0.2000E+00
  0.2000E+00
  0.2000E+00
  0.2000E+00
  0.2000E+00
  0.2000E+00
  0.2000E+00
  0.2000E+00
  0.2000E+00
  0.2000E+00
  0.2000E+00
  0.2000E+00
  0.1360E+01
  0.1360E+01
  0.1360E+01
  0.1360E+01
  0.1360E+01
  0.1360E+01
  0.1360E+01
  0.1360E+01
  0.1360E+01
  0.1360E+01
  0.1360E+01
  0.1360E+01
  0.1360E+01
  0.1360E+01
  0.1360E+01
  0.1357E+01
  0.1350E+01
  0.1332E+01
  0.1297E+01
  0.1242E+01
  0.1173E+01
  0.1100E+01
  0.1034E+01
  0.9764E+00
  0.9251E+00
  0.8855E+00
  0.8561E+00
  0.8241E+00
  0.7783E+00
  0.7192E+00
  0.6482E+00
  0.5740E+00
  0.5162E+00
  0.4942E+00
  0.4943E+00
  0.5077E+00
  0.5253E+00
  0.5243E+00
  0.4868E+00
  0.4065E+00
  0.3318E+00
  0.2758E+00
  0.2370E+00
  0.2140E+00
  0.2037E+00
  0.2006E+00
  0.2001E+00
  0.2000E+00
  0.2000E+00
  0.2000E+00
  0.2000E+00
  0.2000E+00
  0.2000E+00
  0.2000E+00
  0.2000E+00
  0.2000E+00
  0.2000E+00
  0.2000E+00
  0.2000E+00
  0.2000E+00
  0.1215E+01
  0.1215E+01
  0.1215E+01
  0.1215E+01
  0.1215E+01
  0.1215E+01
  0.1215E+01
  0.1215E+01
  0.1215E+01
  0.1215E+01
  0.1215E+01
  0.1215E+01
  0.1215E+01
  0.1215E+01
  0.1214E+01
  0.1211E+01
  0.1202E+01
  0.1183E+01
  0.1150E+01
  0.1104E+01
  0.1050E+01
  0.9952E+00
  0.9441E+00
  0.9003E+00
  0.8620E+00
  0.8223E+00
  0.7785E+00
  0.7284E+00
  0.6728E+00
  0.6140E+00
  0.5568E+00
  0.5167E+00
  0.5015E+00
  0.5006E+00
  0.5132E+00
  0.5276E+00
  0.5233E+00
  0.4834E+00
  0.4047E+00
  0.3305E+00
  0.2745E+00
  0.2362E+00
  0.2136E+00
  0.2036E+00
  0.2006E+00
  0.2001E+00
  0.2000E+00
  0.2000E+00
  0.2000E+00
  0.2000E+00
  0.2000E+00
  0.2000E+00
  0.2000E+00
  0.2000E+00
  0.2000E+00
  0.2000E+00
  0.2000E+00
  0.2000E+00
  0.2000E+00
  0.2000E+00
  0.1041E+01
  0.1041E+01
  0.1041E+01
  0.1041E+01
  0.1041E+01
  0.1041E+01
  0.1041E+01
  0.1041E+01
  0.1041E+01
  0.1041E+01
  0.1041E+01
  0.1041E+01
  0.1041E+01
  0.1040E+01
  0.1039E+01
  0.1034E+01
  0.1024E+01
  0.1005E+01
  0.9775E+00
  0.9426E+00
  0.9045E+00
  0.8663E+00
  0.8287E+00
  0.7917E+00
  0.7549E+00
  0.7160E+00
  0.6728E+00
  0.6268E+00
  0.5817E+00
  0.5445E+00
  0.5225E+00
  0.5119E+00
  0.5131E+00
  0.5249E+00
  0.5338E+00
  0.5246E+00
  0.4777E+00
  0.3986E+00
  0.3264E+00
  0.2718E+00
  0.2344E+00
  0.2127E+00
  0.2033E+00
  0.2006E+00
  0.2001E+00
  0.2000E+00
  0.2000E+00
  0.2000E+00
  0.2000E+00
  0.2000E+00
  0.2000E+00
  0.2000E+00
  0.2000E+00
  0.2000E+00
  0.2000E+00
  0.2000E+00
  0.2000E+00
  0.2000E+00
  0.2000E+00
  0.2000E+00
  0.8834E+00
  0.8834E+00
  0.8834E+00
  0.8834E+00
  0.8834E+00
  0.8834E+00
  0.8834E+00
  0.8834E+00
  0.8834E+00
  0.8834E+00
  0.8834E+00
  0.8833E+00
  0.8832E+00
  0.8825E+00
  0.8805E+00
  0.8753E+00
  0.8647E+00
  0.8478E+00
  0.8256E+00
  0.8007E+00
  0.7744E+00
  0.7470E+00
  0.7179E+00
  0.6877E+00
  0.6556E+00
  0.6235E+00
  0.5914E+00
  0.5654E+00
  0.5472E+00
  0.5352E+00
  0.5273E+00
  0.5315E+00
  0.5422E+00
  0.5419E+00
  0.5261E+00
  0.4695E+00
  0.3894E+00
  0.3190E+00
  0.2667E+00
  0.2312E+00
  0.2112E+00
  0.2028E+00
  0.2005E+00
  0.2001E+00
  0.2000E+00
  0.2000E+00
  0.2000E+00
  0.2000E+00
  0.2000E+00
  0.2000E+00
  0.2000E+00
  0.2000E+00
  0.2000E+00
  0.2000E+00
  0.2000E+00
  0.2000E+00
  0.2000E+00
  0.2000E+00
  0.2000E+00
  0.2000E+00
  0.7763E+00
  0.7763E+00
  0.7763E+00
  0.7763E+00
  0.7763E+00
  0.7763E+00
  0.7763E+00
  0.7763E+00
  0.7763E+00
  0.7763E+00
  0.7763E+00
  0.7762E+00
  0.7760E+00
  0.7753E+00
  0.7730E+00
  0.7674E+00
  0.7568E+00
  0.7415E+00
  0.7238E+00
  0.7052E+00
  0.6854E+00
  0.6637E+00
  0.6417E+00
  0.6204E+00
  0.6007E+00
  0.5843E+00
  0.5707E+00
  0.5593E+00
  0.5507E+00
  0.5497E+00
  0.5556E+00
  0.5599E+00
  0.5510E+00
  0.5227E+00
  0.4543E+00
  0.3742E+00
  0.3077E+00
  0.2588E+00
  0.2266E+00
  0.2091E+00
  0.2022E+00
  0.2004E+00
  0.2000E+00
  0.2000E+00
  0.2000E+00
  0.2000E+00
  0.2000E+00
  0.2000E+00
  0.2000E+00
  0.2000E+00
  0.2000E+00
  0.2000E+00
  0.2000E+00
  0.2000E+00
  0.2000E+00
  0.2000E+00
  0.2000E+00
  0.2000E+00
  0.2000E+00
  0.2000E+00
  0.7312E+00
  0.7312E+00
  0.7312E+00
  0.7312E+00
  0.7312E+00
  0.7312E+00
  0.7312E+00
  0.7312E+00
  0.7312E+00
  0.7312E+00
  0.7312E+00
  0.7311E+00
  0.7309E+00
  0.7300E+00
  0.7274E+00
  0.7216E+00
  0.7118E+00
  0.6990E+00
  0.6847E+00
  0.6699E+00
  0.6547E+00
  0.6393E+00
  0.6241E+00
  0.6099E+00
  0.5968E+00
  0.5854E+00
  0.5782E+00
  0.5761E+00
  0.5777E+00
  0.5791E+00
  0.5732E+00
  0.5545E+00
  0.5073E+00
  0.4268E+00
  0.3505E+00
  0.2907E+00
  0.2476E+00
  0.2202E+00
  0.2065E+00
  0.2015E+00
  0.2002E+00
  0.2000E+00
  0.2000E+00
  0.2000E+00
  0.2000E+00
  0.2000E+00
  0.2000E+00
  0.2000E+00
  0.2000E+00
  0.2000E+00
  0.2000E+00
  0.2000E+00
  0.2000E+00
  0.2000E+00
  0.2000E+00
  0.2000E+00
  0.2000E+00
  0.2000E+00
  0.2000E+00
  0.2000E+00
  0.7263E+00
  0.7263E+00
  0.7263E+00
  0.7263E+00
  0.7263E+00
  0.7263E+00
  0.7263E+00
  0.7263E+00
  0.7263E+00
  0.7263E+00
  0.7263E+00
  0.7262E+00
  0.7260E+00
  0.7251E+00
  0.7224E+00
  0.7168E+00
  0.7077E+00
  0.6959E+00
  0.6825E+00
  0.6686E+00
  0.6549E+00
  0.6416E+00
  0.6293E+00
  0.6195E+00
  0.6124E+00
  0.6084E+00
  0.6055E+00
  0.6010E+00
  0.5915E+00
  0.5745E+00
  0.5352E+00
  0.4654E+00
  0.3861E+00
  0.3189E+00
  0.2687E+00
  0.2338E+00
  0.2132E+00
  0.2039E+00
  0.2008E+00
  0.2001E+00
  0.2000E+00
  0.2000E+00
  0.2000E+00
  0.2000E+00
  0.2000E+00
  0.2000E+00
  0.2000E+00
  0.2000E+00
  0.2000E+00
  0.2000E+00
  0.2000E+00
  0.2000E+00
  0.2000E+00
  0.2000E+00
  0.2000E+00
  0.2000E+00
  0.2000E+00
  0.2000E+00
  0.2000E+00
  0.2000E+00
  0.7299E+00
  0.7299E+00
  0.7299E+00
  0.7299E+00
  0.7299E+00
  0.7299E+00
  0.7299E+00
  0.7299E+00
  0.7299E+00
  0.7299E+00
  0.7299E+00
  0.7298E+00
  0.7296E+00
  0.7287E+00
  0.7261E+00
  0.7208E+00
  0.7123E+00
  0.7018E+00
  0.6905E+00
  0.6794E+00
  0.6689E+00
  0.6586E+00
  0.6488E+00
  0.6391E+00
  0.6317E+00
  0.6206E+00
  0.6067E+00
  0.5831E+00
  0.5402E+00
  0.4745E+00
  0.3996E+00
  0.3337E+00
  0.2821E+00
  0.2444E+00
  0.2198E+00
  0.2069E+00
  0.2018E+00
  0.2003E+00
  0.2000E+00
  0.2000E+00
  0.2000E+00
  0.2000E+00
  0.2000E+00
  0.2000E+00
  0.2000E+00
  0.2000E+00
  0.2000E+00
  0.2000E+00
  0.2000E+00
  0.2000E+00
  0.2000E+00
  0.2000E+00
  0.2000E+00
  0.2000E+00
  0.2000E+00
  0.2000E+00
  0.2000E+00
  0.2000E+00
  0.2000E+00
  0.2000E+00
  0.7303E+00
  0.7303E+00
  0.7303E+00
  0.7303E+00