# vtk DataFile Version 3.0
vtk output
ASCII
DATASET RECTILINEAR_GRID
DIMENSIONS          61          61 1
X_COORDINATES    61 double
  0.0000E+00
  0.1667E+00
  0.3333E+00
  0.5000E+00
  0.6667E+00
  0.8333E+00
  0.1000E+01
  0.1167E+01
  0.1333E+01
  0.1500E+01
  0.1667E+01
  0.1833E+01
  0.2000E+01
  0.2167E+01
  0.2333E+01
  0.2500E+01
  0.2667E+01
  0.2833E+01
  0.3000E+01
  0.3167E+01
  0.3333E+01
  0.3500E+01
  0.3667E+01
  0.3833E+01
  0.4000E+01
  0.4167E+01
  0.4333E+01
  0.4500E+01
  0.4667E+01
  0.4833E+01
  0.5000E+01
  0.5167E+01
  0.5333E+01
  0.5500E+01
  0.5667E+01
  0.5833E+01
  0.6000E+01
  0.6167E+01
  0.6333E+01
  0.6500E+01
  0.6667E+01
  0.6833E+01
  0.7000E+01
  0.7167E+01
  0.7333E+01
  0.7500E+01
  0.7667E+01
  0.7833E+01
  0.8000E+01
  0.8167E+01
  0.8333E+01
  0.8500E+01
  0.8667E+01
  0.8833E+01
  0.9000E+01
  0.9167E+01
  0.9333E+01
  0.9500E+01
  0.9667E+01
  0.9833E+01
  0.1000E+02
Y_COORDINATES    61 double
  0.0000E+00
  0.1667E+00
  0.3333E+00
  0.5000E+00
  0.6667E+00
  0.8333E+00
  0.1000E+01
  0.1167E+01
  0.1333E+01
  0.1500E+01
  0.1667E+01
  0.1833E+01
  0.2000E+01
  0.2167E+01
  0.2333E+01
  0.2500E+01
  0.2667E+01
  0.2833E+01
  0.3000E+01
  0.3167E+01
  0.3333E+01
  0.3500E+01
  0.3667E+01
  0.3833E+01
  0.4000E+01
  0.4167E+01
  0.4333E+01
  0.4500E+01
  0.4667E+01
  0.4833E+01
  0.5000E+01
  0.5167E+01
  0.5333E+01
  0.5500E+01
  0.5667E+01
  0.5833E+01
  0.6000E+01
  0.6167E+01
  0.6333E+01
  0.6500E+01
  0.6667E+01
  0.6833E+01
  0.7000E+01
  0.7167E+01
  0.7333E+01
  0.7500E+01
  0.7667E+01
  0.7833E+01
  0.8000E+01
  0.8167E+01
  0.8333E+01
  0.8500E+01
  0.8667E+01
  0.8833E+01
  0.9000E+01
  0.9167E+01
  0.9333E+01
  0.9500E+01
  0.9667E+01
  0.9833E+01
  0.1000E+02
Z_COORDINATES 1 double
0
CELL_DATA                 3600
FIELD FieldData 4
density 1                 3600 double
  0.6993E+01
  0.6993E+01
  0.6993E+01
  0.6993E+01
  0.6993E+01
  0.6993E+01
  0.6993E+01
  0.6993E+01
  0.6993E+01
  0.6993E+01
  0.6993E+01
  0.6993E+01
  0.6993E+01
  0.6993E+01
  0.6993E+01
  0.6993E+01
  0.6993E+01
  0.6993E+01
  0.6988E+01
  0.6963E+01
  0.6872E+01
  0.6647E+01
  0.6256E+01
  0.5751E+01
  0.5213E+01
  0.4692E+01
  0.4215E+01
  0.3788E+01
  0.3404E+01
  0.3055E+01
  0.2735E+01
  0.2451E+01
  0.2204E+01
  0.1994E+01
  0.1820E+01
  0.1666E+01
  0.1524E+01
  0.1428E+01
  0.1361E+01
  0.1257E+01
  0.1085E+01
  0.9022E+00
  0.7934E+00
  0.7597E+00
  0.7010E+00
  0.5052E+00
  0.3056E+00
  0.2165E+00
  0.2003E+00
  0.2000E+00
  0.2000E+00
  0.2000E+00
  0.2000E+00
  0.2000E+00
  0.2000E+00
  0.2000E+00
  0.2000E+00
  0.2000E+00
  0.2000E+00
  0.2000E+00
  0.6969E+01
  0.6969E+01
  0.6969E+01
  0.6969E+01
  0.6969E+01
  0.6969E+01
  0.6969E+01
  0.6969E+01
  0.6969E+01
  0.6969E+01
  0.6969E+01
  0.6969E+01
  0.6969E+01
  0.6969E+01
  0.6969E+01
  0.6969E+01
  0.6969E+01
  0.6968E+01
  0.6963E+01
  0.6939E+01
  0.6849E+01
  0.6626E+01
  0.6236E+01
  0.5734E+01
  0.5199E+01
  0.4681E+01
  0.4206E+01
  0.3781E+01
  0.3399E+01
  0.3051E+01
  0.2732E+01
  0.2448E+01
  0.2202E+01
  0.1993E+01
  0.1819E+01
  0.1665E+01
  0.1524E+01
  0.1428E+01
  0.1360E+01
  0.1256E+01
  0.1084E+01
  0.9013E+00
  0.7923E+00
  0.7584E+00
  0.6995E+00
  0.5041E+00
  0.3052E+00
  0.2164E+00
  0.2003E+00
  0.2000E+00
  0.2000E+00
  0.2000E+00
  0.2000E+00
  0.2000E+00
  0.2000E+00
  0.2000E+00
  0.2000E+00
  0.2000E+00
  0.2000E+00
  0.2000E+00
  0.6879E+01
  0.6879E+01
  0.6879E+01
  0.6879E+01
  0.6879E+01
  0.6879E+01
  0.6879E+01
  0.6879E+01
  0.6879E+01
  0.6879E+01
  0.6879E+01
  0.6879E+01
  0.6879E+01
  0.6879E+01
  0.6879E+01
  0.6879E+01
  0.6878E+01
  0.6878E+01
  0.6873E+01
  0.6849E+01
  0.6762E+01
  0.6543E+01
  0.6161E+01
  0.5669E+01
  0.5143E+01
  0.4634E+01
  0.4168E+01
  0.3750E+01
  0.3374E+01
  0.3031E+01
  0.2717E+01
  0.2437E+01
  0.2194E+01
  0.1987E+01
  0.1815E+01
  0.1662E+01
  0.1522E+01
  0.1426E+01
  0.1358E+01
  0.1254E+01
  0.1081E+01
  0.8971E+00
  0.7876E+00
  0.7532E+00
  0.6940E+00
  0.5002E+00
  0.3039E+00
  0.2161E+00
  0.2003E+00
  0.2000E+00
  0.2000E+00
  0.2000E+00
  0.2000E+00
  0.2000E+00
  0.2000E+00
  0.2000E+00
  0.2000E+00
  0.2000E+00
  0.2000E+00
  0.2000E+00
  0.6653E+01
  0.6653E+01
  0.6653E+01
  0.6653E+01
  0.6653E+01
  0.6653E+01
  0.6653E+01
  0.6653E+01
  0.6653E+01
  0.6653E+01
  0.6653E+01
  0.6653E+01
  0.6653E+01
  0.6653E+01
  0.6653E+01
  0.6653E+01
  0.6653E+01
  0.6652E+01
  0.6648E+01
  0.6626E+01
  0.6543E+01
  0.6336E+01
  0.5971E+01
  0.5499E+01
  0.4994E+01
  0.4506E+01
  0.4059E+01
  0.3658E+01
  0.3298E+01
  0.2969E+01
  0.2667E+01
  0.2397E+01
  0.2162E+01
  0.1962E+01
  0.1796E+01
  0.1648E+01
  0.1510E+01
  0.1415E+01
  0.1348E+01
  0.1243E+01
  0.1069E+01
  0.8843E+00
  0.7749E+00
  0.7406E+00
  0.6815E+00
  0.4917E+00
  0.3009E+00
  0.2154E+00
  0.2002E+00
  0.2000E+00
  0.2000E+00
  0.2000E+00
  0.2000E+00
  0.2000E+00
  0.2000E+00
  0.2000E+00
  0.2000E+00
  0.2000E+00
  0.2000E+00
  0.2000E+00
  0.6261E+01
  0.6261E+01
  0.6261E+01
  0.6261E+01
  0.6261E+01
  0.6261E+01
  0.6261E+01
  0.6261E+01
  0.6261E+01
  0.6261E+01
  0.6261E+01
  0.6261E+01
  0.6261E+01
  0.6261E+01
  0.6261E+01
  0.6261E+01
  0.6261E+01
  0.6260E+01
  0.6256E+01
  0.6236E+01
  0.6161E+01
  0.5971E+01
  0.5632E+01
  0.5191E+01
  0.4719E+01
  0.4262E+01
  0.3845E+01
  0.3471E+01
  0.3137E+01
  0.2831E+01
  0.2550E+01
  0.2299E+01
  0.2081E+01
  0.1895E+01
  0.1741E+01
  0.1602E+01
  0.1472E+01
  0.1382E+01
  0.1316E+01
  0.1210E+01
  0.1037E+01
  0.8567E+00
  0.7523E+00
  0.7201E+00
  0.6620E+00
  0.4777E+00
  0.2957E+00
  0.2141E+00
  0.2002E+00
  0.2000E+00
  0.2000E+00
  0.2000E+00
  0.2000E+00
  0.2000E+00
  0.2000E+00
  0.2000E+00
  0.2000E+00
  0.2000E+00
  0.2000E+00
  0.2000E+00
  0.5755E+01
  0.5755E+01
  0.5755E+01
  0.5755E+01
  0.5755E+01
  0.5755E+01
  0.5755E+01
  0.5755E+01
  0.5755E+01
  0.5755E+01
  0.5755E+01
  0.5755E+01
  0.5755E+01
  0.5755E+01
  0.5755E+01
  0.5755E+01
  0.5755E+01
  0.5755E+01
  0.5751E+01
  0.5734E+01
  0.5669E+01
  0.5499E+01
  0.5191E+01
  0.4785E+01
  0.4350E+01
  0.3928E+01
  0.3543E+01
  0.3200E+01
  0.2894E+01
  0.2615E+01
  0.2359E+01
  0.2132E+01
  0.1935E+01
  0.1768E+01
  0.1631E+01
  0.1507E+01
  0.1388E+01
  0.1306E+01
  0.1244E+01
  0.1144E+01
  0.9818E+00
  0.8150E+00
  0.7230E+00
  0.6957E+00
  0.6385E+00
  0.4586E+00
  0.2876E+00
  0.2121E+00
  0.2002E+00
  0.2000E+00
  0.2000E+00
  0.2000E+00
  0.2000E+00
  0.2000E+00
  0.2000E+00
  0.2000E+00
  0.2000E+00
  0.2000E+00
  0.2000E+00
  0.2000E+00
  0.5216E+01
  0.5216E+01
  0.5216E+01
  0.5216E+01
  0.5216E+01
  0.5216E+01
  0.5216E+01
  0.5216E+01
  0.5216E+01
  0.5216E+01
  0.5216E+01
  0.5216E+01
  0.5216E+01
  0.5216E+01
  0.5216E+01
  0.5216E+01
  0.5216E+01
  0.5216E+01
  0.5213E+01
  0.5199E+01
  0.5143E+01
  0.4994E+01
  0.4719E+01
  0.4349E+01
  0.3950E+01
  0.3562E+01
  0.3208E+01
  0.2893E+01
  0.2613E+01
  0.2359E+01
  0.2127E+01
  0.1923E+01
  0.1746E+01
  0.1597E+01
  0.1475E+01
  0.1364E+01
  0.1258E+01
  0.1186E+01
  0.1134E+01
  0.1049E+01
  0.9099E+00
  0.7673E+00
  0.6923E+00
  0.6710E+00
  0.6116E+00
  0.4337E+00
  0.2766E+00
  0.2095E+00
  0.2001E+00
  0.2000E+00
  0.2000E+00
  0.2000E+00
  0.2000E+00
  0.2000E+00
  0.2000E+00
  0.2000E+00
  0.2000E+00
  0.2000E+00
  0.2000E+00
  0.2000E+00
  0.4695E+01
  0.4695E+01
  0.4695E+01
  0.4695E+01
  0.4695E+01
  0.4695E+01
  0.4695E+01
  0.4695E+01
  0.4695E+01
  0.4695E+01
  0.4695E+01
  0.4695E+01
  0.4695E+01
  0.4695E+01
  0.4695E+01
  0.4695E+01
  0.4695E+01
  0.4695E+01
  0.4693E+01
  0.4681E+01
  0.4634E+01
  0.4506E+01
  0.4262E+01
  0.3928E+01
  0.3562E+01
  0.3205E+01
  0.2879E+01
  0.2590E+01
  0.2334E+01
  0.2101E+01
  0.1891E+01
  0.1705E+01
  0.1546E+01
  0.1412E+01
  0.1302E+01
  0.1202E+01
  0.1107E+01
  0.1047E+01
  0.1008E+01
  0.9458E+00
  0.8353E+00
  0.7202E+00
  0.6637E+00
  0.6468E+00
  0.5787E+00
  0.4030E+00
  0.2629E+00
  0.2066E+00
  0.2001E+00
  0.2000E+00
  0.2000E+00
  0.2000E+00
  0.2000E+00
  0.2000E+00
  0.2000E+00
  0.2000E+00
  0.2000E+00
  0.2000E+00
  0.2000E+00
  0.2000E+00
  0.4217E+01
  0.4217E+01
  0.4217E+01
  0.4217E+01
  0.4217E+01
  0.4217E+01
  0.4217E+01
  0.4217E+01
  0.4217E+01
  0.4217E+01
  0.4217E+01
  0.4217E+01
  0.4217E+01
  0.4217E+01
  0.4217E+01
  0.4217E+01
  0.4217E+01
  0.4217E+01
  0.4215E+01
  0.4206E+01
  0.4168E+01
  0.4059E+01
  0.3844E+01
  0.3543E+01
  0.3207E+01
  0.2879E+01
  0.2579E+01
  0.2313E+01
  0.2077E+01
  0.1863E+01
  0.1671E+01
  0.1502E+01
  0.1357E+01
  0.1235E+01
  0.1134E+01
  0.1042E+01
  0.9590E+00
  0.9114E+00
  0.8920E+00
  0.8557E+00
  0.7699E+00
  0.6767E+00
  0.6371E+00
  0.6206E+00
  0.5384E+00
  0.3682E+00
  0.2477E+00
  0.2040E+00
  0.2000E+00
  0.2000E+00
  0.2000E+00
  0.2000E+00
  0.2000E+00
  0.2000E+00
  0.2000E+00
  0.2000E+00
  0.2000E+00
  0.2000E+00
  0.2000E+00
  0.2000E+00
  0.3789E+01
  0.3789E+01
  0.3789E+01
  0.3789E+01
  0.3789E+01
  0.3789E+01
  0.3789E+01
  0.3789E+01
  0.3789E+01
  0.3789E+01
  0.3789E+01
  0.3789E+01
  0.3789E+01
  0.3789E+01
  0.3789E+01
  0.3789E+01
  0.3789E+01
  0.3789E+01
  0.3788E+01
  0.3781E+01
  0.3750E+01
  0.3658E+01
  0.3471E+01
  0.3200E+01
  0.2893E+01
  0.2590E+01
  0.2313E+01
  0.2068E+01
  0.1850E+01
  0.1654E+01
  0.1477E+01
  0.1323E+01
  0.1191E+01
  0.1080E+01
  0.9870E+00
  0.9016E+00
  0.8287E+00
  0.8027E+00
  0.8034E+00
  0.7922E+00
  0.7161E+00
  0.6370E+00
  0.6142E+00
  0.5924E+00
  0.4889E+00
  0.3315E+00
  0.2325E+00
  0.2021E+00
  0.2000E+00
  0.2000E+00
  0.2000E+00
  0.2000E+00
  0.2000E+00
  0.2000E+00
  0.2000E+00
  0.2000E+00
  0.2000E+00
  0.2000E+00
  0.2000E+00
  0.2000E+00
  0.3405E+01
  0.3405E+01
  0.3405E+01
  0.3405E+01
  0.3405E+01
  0.3405E+01
  0.3405E+01
  0.3405E+01
  0.3405E+01
  0.3405E+01
  0.3405E+01
  0.3405E+01
  0.3405E+01
  0.3405E+01
  0.3405E+01
  0.3405E+01
  0.3405E+01
  0.3405E+01
  0.3404E+01
  0.3399E+01
  0.3374E+01
  0.3298E+01
  0.3136E+01
  0.2893E+01
  0.2613E+01
  0.2333E+01
  0.2077E+01
  0.1850E+01
  0.1650E+01
  0.1469E+01
  0.1307E+01
  0.1166E+01
  0.1045E+01
  0.9425E+00
  0.8574E+00
  0.7765E+00
  0.7256E+00
  0.7270E+00
  0.7528E+00
  0.7436E+00
  0.6636E+00
  0.6020E+00
  0.5899E+00
  0.5573E+00
  0.4315E+00
  0.2953E+00
  0.2192E+00
  0.2009E+00
  0.2000E+00
  0.2000E+00
  0.2000E+00
  0.2000E+00
  0.2000E+00
  0.2000E+00
  0.2000E+00
  0.2000E+00
  0.2000E+00
  0.2000E+00
  0.2000E+00
  0.2000E+00
  0.3055E+01
  0.3055E+01
  0.3055E+01
  0.3055E+01
  0.3055E+01
  0.3055E+01
  0.3055E+01
  0.3055E+01
  0.3055E+01
  0.3055E+01
  0.3055E+01
  0.3055E+01
  0.3055E+01
  0.3055E+01
  0.3055E+01
  0.3055E+01
  0.3055E+01
  0.3055E+01
  0.3055E+01
  0.3051E+01
  0.3031E+01
  0.2969E+01
  0.2830E+01
  0.2614E+01
  0.2359E+01
  0.2101E+01
  0.1863E+01
  0.1654E+01
  0.1469E+01
  0.1302E+01
  0.1154E+01
  0.1026E+01
  0.9147E+00
  0.8225E+00
  0.7427E+00
  0.6728E+00
  0.6596E+00
  0.6924E+00
  0.7260E+00
  0.6880E+00
  0.6032E+00
  0.5750E+00
  0.5662E+00
  0.5071E+00
  0.3735E+00
  0.2624E+00
  0.2096E+00
  0.2003E+00
  0.2000E+00
  0.2000E+00
  0.2000E+00
  0.2000E+00
  0.2000E+00
  0.2000E+00
  0.2000E+00
  0.2000E+00
  0.2000E+00
  0.2000E+00
  0.2000E+00
  0.2000E+00
  0.2736E+01
  0.2736E+01
  0.2736E+01
  0.2736E+01
  0.2736E+01
  0.2736E+01
  0.2736E+01
  0.2736E+01
  0.2736E+01
  0.2736E+01
  0.2736E+01
  0.2736E+01
  0.2736E+01
  0.2736E+01
  0.2736E+01
  0.2736E+01
  0.2736E+01
  0.2736E+01
  0.2735E+01
  0.2732E+01
  0.2717E+01
  0.2667E+01
  0.2549E+01
  0.2358E+01
  0.2127E+01
  0.1890E+01
  0.1670E+01
  0.1477E+01
  0.1307E+01
  0.1154E+01
  0.1019E+01
  0.9023E+00
  0.8018E+00
  0.7190E+00
  0.6401E+00
  0.6131E+00
  0.6425E+00
  0.6997E+00
  0.6919E+00
  0.6112E+00
  0.5572E+00
  0.5535E+00
  0.5352E+00
  0.4419E+00
  0.3194E+00
  0.2355E+00
  0.2039E+00
  0.2001E+00
  0.2000E+00
  0.2000E+00
  0.2000E+00
  0.2000E+00
  0.2000E+00
  0.2000E+00
  0.2000E+00
  0.2000E+00
  0.2000E+00
  0.2000E+00
  0.2000E+00
  0.2000E+00
  0.2451E+01
  0.2451E+01
  0.2451E+01
  0.2451E+01
  0.2451E+01
  0.2451E+01
  0.2451E+01
  0.2451E+01
  0.2451E+01
  0.2451E+01
  0.2451E+01
  0.2451E+01
  0.2451E+01
  0.2451E+01
  0.2451E+01
  0.2451E+01
  0.2451E+01
  0.2451E+01
  0.2451E+01
  0.2448E+01
  0.2437E+01
  0.2397E+01
  0.2298E+01
  0.2131E+01
  0.1922E+01
  0.1705E+01
  0.1502E+01
  0.1323E+01
  0.1166E+01
  0.1025E+01
  0.9023E+00
  0.7957E+00
  0.7066E+00
  0.6217E+00
  0.5908E+00
  0.6094E+00
  0.6730E+00
  0.6833E+00
  0.6256E+00
  0.5485E+00
  0.5373E+00
  0.5325E+00
  0.4832E+00
  0.3726E+00
  0.2734E+00
  0.2167E+00
  0.2012E+00
  0.2000E+00
  0.2000E+00
  0.2000E+00
  0.2000E+00
  0.2000E+00
  0.2000E+00
  0.2000E+00
  0.2000E+00
  0.2000E+00
  0.2000E+00
  0.2000E+00
  0.2000E+00
  0.2000E+00
  0.2204E+01
  0.2204E+01
  0.2204E+01
  0.2204E+01
  0.2204E+01
  0.2204E+01
  0.2204E+01
  0.2204E+01
  0.2204E+01
  0.2204E+01
  0.2204E+01
  0.2204E+01
  0.2204E+01
  0.2204E+01
  0.2204E+01
  0.2204E+01
  0.2204E+01
  0.2204E+01
  0.2204E+01
  0.2202E+01
  0.2194E+01
  0.2162E+01
  0.2081E+01
  0.1935E+01
  0.1746E+01
  0.1546E+01
  0.1357E+01
  0.1191E+01
  0.1045E+01
  0.9146E+00
  0.8018E+00
  0.7068E+00
  0.6174E+00
  0.5850E+00
  0.5942E+00
  0.6479E+00
  0.6777E+00
  0.6411E+00
  0.5589E+00
  0.5255E+00
  0.5225E+00
  0.4963E+00
  0.4102E+00
  0.3107E+00
  0.2388E+00
  0.2063E+00
  0.2003E+00
  0.2000E+00
  0.2000E+00
  0.2000E+00
  0.2000E+00
  0.2000E+00
  0.2000E+00
  0.2000E+00
  0.2000E+00
  0.2000E+00
  0.2000E+00
  0.2000E+00
  0.2000E+00
  0.2000E+00
  0.1994E+01
  0.1994E+01
  0.1994E+01
  0.1994E+01
  0.1994E+01
  0.1994E+01
  0.1994E+01
  0.1994E+01
  0.1994E+01
  0.1994E+01
  0.1994E+01
  0.1994E+01
  0.1994E+01
  0.1994E+01
  0.1994E+01
  0.1994E+01
  0.1994E+01
  0.1994E+01
  0.1994E+01
  0.1993E+01
  0.1986E+01
  0.1962E+01
  0.1895E+01
  0.1768E+01
  0.1597E+01
  0.1412E+01
  0.1235E+01
  0.1079E+01
  0.9423E+00
  0.8223E+00
  0.7191E+00
  0.6203E+00
  0.5857E+00
  0.5888E+00
  0.6258E+00
  0.6676E+00
  0.6550E+00
  0.5820E+00
  0.5316E+00
  0.5198E+00
  0.4967E+00
  0.4302E+00
  0.3396E+00
  0.2626E+00
  0.2166E+00
  0.2018E+00
  0.2001E+00
  0.2000E+00
  0.2000E+00
  0.2000E+00
  0.2000E+00
  0.2000E+00
  0.2000E+00
  0.2000E+00
  0.2000E+00
  0.2000E+00
  0.2000E+00
  0.2000E+00
  0.2000E+00
  0.2000E+00
  0.1820E+01
  0.1820E+01
  0.1820E+01
  0.1820E+01
  0.1820E+01
  0.1820E+01
  0.1820E+01
  0.1820E+01
  0.1820E+01
  0.1820E+01
  0.1820E+01
  0.1820E+01
  0.1820E+01
  0.1820E+01
  0.1820E+01
  0.1820E+01
  0.1820E+01
  0.1820E+01
  0.1820E+01
  0.1819E+01
  0.1814E+01
  0.1796E+01
  0.1740E+01
  0.1630E+01
  0.1474E+01
  0.1302E+01
  0.1134E+01
  0.9867E+00
  0.8571E+00
  0.7429E+00
  0.6388E+00
  0.5919E+00
  0.5955E+00
  0.6251E+00
  0.6649E+00
  0.6627E+00
  0.6044E+00
  0.5392E+00
  0.5198E+00
  0.4987E+00
  0.4399E+00
  0.3579E+00
  0.2823E+00
  0.2296E+00
  0.2055E+00
  0.2004E+00
  0.2000E+00
  0.2000E+00
  0.2000E+00
  0.2000E+00
  0.2000E+00
  0.2000E+00
  0.2000E+00
  0.2000E+00
  0.2000E+00
  0.2000E+00
  0.2000E+00
  0.2000E+00
  0.2000E+00
  0.2000E+00
  0.1666E+01
  0.1666E+01
  0.1666E+01
  0.1666E+01
  0.1666E+01
  0.1666E+01
  0.1666E+01
  0.1666E+01
  0.1666E+01
  0.1666E+01
  0.1666E+01
  0.1666E+01
  0.1666E+01
  0.1666E+01
  0.1666E+01
  0.1666E+01
  0.1666E+01
  0.1666E+01
  0.1666E+01
  0.1665E+01
  0.1662E+01
  0.1647E+01
  0.1602E+01
  0.1506E+01
  0.1364E+01
  0.1201E+01
  0.1042E+01
  0.9013E+00
  0.7765E+00
  0.6726E+00
  0.6143E+00
  0.6119E+00
  0.6466E+00
  0.6707E+00
  0.6645E+00
  0.6163E+00
  0.5503E+00
  0.5158E+00
  0.4941E+00
  0.4425E+00
  0.3674E+00
  0.2958E+00
  0.2416E+00
  0.2110E+00
  0.2013E+00
  0.2001E+00
  0.2000E+00
  0.2000E+00
  0.2000E+00
  0.2000E+00
  0.2000E+00
  0.2000E+00
  0.2000E+00
  0.2000E+00
  0.2000E+00
  0.2000E+00
  0.2000E+00
  0.2000E+00
  0.2000E+00
  0.2000E+00
  0.1525E+01
  0.1525E+01
  0.1525E+01
  0.1525E+01
  0.1525E+01
  0.1525E+01
  0.1525E+01
  0.1525E+01
  0.1525E+01
  0.1525E+01
  0.1525E+01
  0.1525E+01
  0.1525E+01
  0.1525E+01
  0.1525E+01
  0.1525E+01
  0.1525E+01
  0.1525E+01
  0.1524E+01
  0.1524E+01
  0.1522E+01
  0.1510E+01
  0.1472E+01
  0.1388E+01
  0.1258E+01
  0.1107E+01
  0.9587E+00
  0.8282E+00
  0.7252E+00
  0.6582E+00
  0.6423E+00
  0.6694E+00
  0.6740E+00
  0.6575E+00
  0.6074E+00
  0.5529E+00
  0.5200E+00
  0.4921E+00
  0.4415E+00
  0.3705E+00
  0.3033E+00
  0.2506E+00
  0.2168E+00
  0.2030E+00
  0.2002E+00
  0.2000E+00
  0.2000E+00
  0.2000E+00
  0.2000E+00
  0.2000E+00
  0.2000E+00
  0.2000E+00
  0.2000E+00
  0.2000E+00
  0.2000E+00
  0.2000E+00
  0.2000E+00
  0.2000E+00
  0.2000E+00
  0.2000E+00
  0.1428E+01
  0.1428E+01
  0.1428E+01
  0.1428E+01
  0.1428E+01
  0.1428E+01
  0.1428E+01
  0.1428E+01
  0.1428E+01
  0.1428E+01
  0.1428E+01
  0.1428E+01
  0.1428E+01
  0.1428E+01
  0.1428E+01
  0.1428E+01
  0.1428E+01
  0.1428E+01
  0.1428E+01
  0.1428E+01
  0.1426E+01
  0.1415E+01
  0.1382E+01
  0.1305E+01
  0.1186E+01
  0.1047E+01
  0.9113E+00
  0.8035E+00
  0.7263E+00
  0.6939E+00
  0.6995E+00
  0.6844E+00
  0.6421E+00
  0.5827E+00
  0.5414E+00
  0.5188E+00
  0.4938E+00
  0.4421E+00
  0.3708E+00
  0.3058E+00
  0.2560E+00
  0.2218E+00
  0.2050E+00
  0.2006E+00
  0.2000E+00
  0.2000E+00
  0.2000E+00
  0.2000E+00
  0.2000E+00
  0.2000E+00
  0.2000E+00
  0.2000E+00
  0.2000E+00
  0.2000E+00
  0.2000E+00
  0.2000E+00
  0.2000E+00
  0.2000E+00
  0.2000E+00
  0.2000E+00
  0.1361E+01
  0.1361E+01
  0.1361E+01
  0.1361E+01
  0.1361E+01
  0.1361E+01
  0.1361E+01
  0.1361E+01
  0.1361E+01
  0.1361E+01
  0.1361E+01
  0.1361E+01
  0.1361E+01
  0.1361E+01
  0.1361E+01
  0.1361E+01
  0.1361E+01
  0.1361E+01
  0.1361E+01
  0.1360E+01
  0.1358E+01
  0.1348E+01
  0.1316E+01
  0.1244E+01
  0.1133E+01
  0.1008E+01
  0.8918E+00
  0.8039E+00
  0.7520E+00
  0.7238E+00
  0.6923E+00
  0.6244E+00
  0.5597E+00
  0.5297E+00
  0.5179E+00
  0.4948E+00
  0.4428E+00
  0.3712E+00
  0.3054E+00
  0.2573E+00
  0.2251E+00
  0.2070E+00
  0.2010E+00
  0.2001E+00
  0.2000E+00
  0.2000E+00
  0.2000E+00
  0.2000E+00
  0.2000E+00
  0.2000E+00
  0.2000E+00
  0.2000E+00
  0.2000E+00
  0.2000E+00
  0.2000E+00
  0.2000E+00
  0.2000E+00
  0.2000E+00
  0.2000E+00
  0.2000E+00
  0.1257E+01
  0.1257E+01
  0.1257E+01
  0.1257E+01
  0.1257E+01
  0.1257E+01
  0.1257E+01
  0.1257E+01
  0.1257E+01
  0.1257E+01
  0.1257E+01
  0.1257E+01
  0.1257E+01
  0.1257E+01
  0.1257E+01
  0.1257E+01
  0.1257E+01
  0.1257E+01
  0.1257E+01
  0.1256E+01
  0.1254E+01
  0.1243E+01
  0.1210E+01
  0.1144E+01
  0.1048E+01
  0.9454E+00
  0.8554E+00
  0.7920E+00
  0.7425E+00
  0.6880E+00
  0.6103E+00
  0.5489E+00
  0.5292E+00
  0.5190E+00
  0.4959E+00
  0.4422E+00
  0.3708E+00
  0.3059E+00
  0.2574E+00
  0.2258E+00
  0.2083E+00
  0.2016E+00
  0.2002E+00
  0.2000E+00
  0.2000E+00
  0.2000E+00
  0.2000E+00
  0.2000E+00
  0.2000E+00
  0.2000E+00
  0.2000E+00
  0.2000E+00
  0.2000E+00
  0.2000E+00
  0.2000E+00
  0.2000E+00
  0.2000E+00
  0.2000E+00
  0.2000E+00
  0.2000E+00
  0.1085E+01
  0.1085E+01
  0.1085E+01
  0.1085E+01
  0.1085E+01
  0.1085E+01
  0.1085E+01
  0.1085E+01
  0.1085E+01
  0.1085E+01
  0.1085E+01
  0.1085E+01
  0.1085E+01
  0.1085E+01
  0.1085E+01
  0.1085E+01
  0.1085E+01
  0.1085E+01
  0.1085E+01
  0.1084E+01
  0.1081E+01
  0.1069E+01
  0.1037E+01
  0.9813E+00
  0.9094E+00
  0.8348E+00
  0.7695E+00
  0.7158E+00
  0.6631E+00
  0.6036E+00
  0.5559E+00
  0.5368E+00
  0.5249E+00
  0.4977E+00
  0.4394E+00
  0.3670E+00
  0.3033E+00
  0.2559E+00
  0.2250E+00
  0.2083E+00
  0.2019E+00
  0.2002E+00
  0.2000E+00
  0.2000E+00
  0.2000E+00
  0.2000E+00
  0.2000E+00
  0.2000E+00
  0.2000E+00
  0.2000E+00
  0.2000E+00
  0.2000E+00
  0.2000E+00
  0.2000E+00
  0.2000E+00
  0.2000E+00
  0.2000E+00
  0.2000E+00
  0.2000E+00
  0.2000E+00
  0.9024E+00
  0.9024E+00
  0.9024E+00
  0.9024E+00
  0.9024E+00
  0.9024E+00
  0.9024E+00
  0.9024E+00
  0.9024E+00
  0.9024E+00
  0.9024E+00
  0.9024E+00
  0.9024E+00
  0.9024E+00
  0.9024E+00
  0.9024E+00
  0.9024E+00
  0.9024E+00
  0.9022E+00
  0.9013E+00
  0.8970E+00
  0.8841E+00
  0.8564E+00
  0.8146E+00
  0.7670E+00
  0.7199E+00
  0.6766E+00
  0.6365E+00
  0.6017E+00
  0.5752E+00
  0.5527E+00
  0.5326E+00
  0.4958E+00
  0.4310E+00
  0.3579E+00
  0.2958E+00
  0.2506E+00
  0.2217E+00
  0.2070E+00
  0.2016E+00
  0.2002E+00
  0.2000E+00
  0.2000E+00
  0.2000E+00
  0.2000E+00
  0.2000E+00
  0.2000E+00
  0.2000E+00
  0.2000E+00
  0.2000E+00
  0.2000E+00
  0.2000E+00
  0.2000E+00
  0.2000E+00
  0.2000E+00
  0.2000E+00
  0.2000E+00
  0.2000E+00
  0.2000E+00
  0.2000E+00
  0.7937E+00
  0.7937E+00
  0.7937E+00
  0.7937E+00
  0.7937E+00
  0.7937E+00
  0.7937E+00
  0.7937E+00
  0.7937E+00
  0.7937E+00
  0.7937E+00
  0.7937E+00
  0.7937E+00
  0.7937E+00
  0.7937E+00
  0.7937E+00
  0.7937E+00
  0.7937E+00
  0.7935E+00
  0.7923E+00
  0.7876E+00
  0.7748E+00
  0.7523E+00
  0.7230E+00
  0.6924E+00
  0.6638E+00
  0.6372E+00
  0.6136E+00
  0.5896E+00
  0.5661E+00
  0.5359E+00
  0.4821E+00
  0.4100E+00
  0.3395E+00
  0.2823E+00
  0.2416E+00
  0.2168E+00
  0.2050E+00
  0.2010E+00
  0.2002E+00
  0.2000E+00
  0.2000E+00
  0.2000E+00
  0.2000E+00
  0.2000E+00
  0.2000E+00
  0.2000E+00
  0.2000E+00
  0.2000E+00
  0.2000E+00
  0.2000E+00
  0.2000E+00
  0.2000E+00
  0.2000E+00
  0.2000E+00
  0.2000E+00
  0.2000E+00
  0.2000E+00
  0.2000E+00
  0.2000E+00
  0.7600E+00
  0.7600E+00
  0.7600E+00
  0.7600E+00
  0.7600E+00
  0.7600E+00
  0.7600E+00
  0.7600E+00
  0.7600E+00
  0.7600E+00
  0.7600E+00
  0.7600E+00
  0.7600E+00
  0.7600E+00
  0.7600E+00
  0.7600E+00
  0.7600E+00
  0.7600E+00
  0.7597E+00
  0.7584E+00
  0.7532E+00
  0.7406E+00
  0.7202E+00
  0.6959E+00
  0.6713E+00
  0.6471E+00
  0.6208E+00
  0.5922E+00
  0.5568E+00
  0.5070E+00
  0.4425E+00
  0.3725E+00
  0.3106E+00
  0.2626E+00
  0.2296E+00
  0.2110E+00
  0.2030E+00
  0.2006E+00
  0.2001E+00
  0.2000E+00
  0.2000E+00
  0.2000E+00
  0.2000E+00
  0.2000E+00
  0.2000E+00
  0.2000E+00
  0.2000E+00
  0.2000E+00
  0.2000E+00
  0.2000E+00
  0.2000E+00
  0.2000E+00
  0.2000E+00
  0.2000E+00
  0.2000E+00
  0.2000E+00
  0.2000E+00
  0.2000E+00
  0.2000E+00
  0.2000E+00
  0.7014E+00
  0.7014E+00
  0.7014E+00
  0.7014E+00
  0.7014E+00
  0.7014E+00
  0.7014E+00
  0.7014E+00
  0.7014E+00
  0.7014E+00
  0.7014E+00
  0.7014E+00
  0.7014E+00
  0.7014E+00
  0.7014E+00
  0.7014E+00
  0.7014E+00
  0.7014E+00
  0.7011E+00
  0.6995E+00
  0.6939E+00
  0.6813E+00
  0.6617E+00
  0.6382E+00
  0.6115E+00
  0.5786E+00
  0.5383E+00
  0.4887E+00
  0.4315E+00
  0.3736E+00
  0.3193E+00
  0.2734E+00
  0.2388E+00
  0.2167E+00
  0.2055E+00
  0.2013E+00
  0.2002E+00
  0.2000E+00
  0.2000E+00
  0.2000E+00
  0.2000E+00
  0.2000E+00
  0.2000E+00
  0.2000E+00
  0.2000E+00
  0.2000E+00
  0.2000E+00
  0.2000E+00
  0.2000E+00
  0.2000E+00
  0.2000E+00
  0.2000E+00
  0.2000E+00
  0.2000E+00
  0.2000E+00
  0.2000E+00
  0.2000E+00
  0.2000E+00
  0.2000E+00
  0.2000E+00
  0.5055E+00
  0.5055E+00
  0.5055E+00
  0.5055E+00
  0.5055E+00
  0.5055E+00
  0.5055E+00
  0.5055E+00
  0.5055E+00
  0.5055E+00
  0.5055E+00
  0.5055E+00
  0.5055E+00
  0.5055E+00
  0.5055E+00
  0.5055E+00
  0.5055E+00
  0.5055E+00
  0.5052E+00
  0.5040E+00
  0.5001E+00
  0.4914E+00
  0.4775E+00
  0.4583E+00
  0.4334E+00
  0.4028E+00
  0.3681E+00
  0.3314E+00
  0.2953E+00
  0.2624E+00
  0.2355E+00
  0.2168E+00
  0.2063E+00
  0.2018E+00
  0.2004E+00
  0.2001E+00
  0.2000E+00
  0.2000E+00
  0.2000E+00
  0.2000E+00
  0.2000E+00
  0.2000E+00
  0.2000E+00
  0.2000E+00
  0.2000E+00
  0.2000E+00
  0.2000E+00
  0.2000E+00
  0.2000E+00
  0.2000E+00
  0.2000E+00
  0.2000E+00
  0.2000E+00
  0.2000E+00
  0.2000E+00
  0.2000E+00
  0.2000E+00
  0.2000E+00
  0.2000E+00
  0.2000E+00
  0.3057E+00
  0.3057E+00
  0.3057E+00
  0.3057E+00
  0.3057E+00
  0.3057E+00
  0.3057E+00
  0.3057E+00
  0.3057E+00
  0.3057E+00
  0.3057E+00
  0.3057E+00
  0.3057E+00
  0.3057E+00
  0.3057E+00
  0.3057E+00
  0.3057E+00
  0.3057E+00
  0.3056E+00
  0.3052E+00
  0.3038E+00
  0.3009E+00
  0.2957E+00
  0.2876E+00
  0.2766E+00
  0.2629E+00
  0.2477E+00
  0.2325E+00
  0.2193E+00
  0.2096E+00
  0.2039E+00
  0.2012E+00
  0.2003E+00
  0.2001E+00
  0.2000E+00
  0.2000E+00
  0.2000E+00
  0.2000E+00
  0.2000E+00
  0.2000E+00
  0.2000E+00
  0.2000E+00
  0.2000E+00
  0.2000E+00
  0.2000E+00
  0.2000E+00
  0.2000E+00
  0.2000E+00
  0.2000E+00
  0.2000E+00
  0.2000E+00
  0.2000E+00
  0.2000E+00
  0.2000E+00
  0.2000E+00
  0.2000E+00
  0.2000E+00
  0.2000E+00
  0.2000E+00
  0.2000E+00
  0.2165E+00
  0.2165E+00
  0.2165E+00
  0.2165E+00
  0.2165E+00
  0.2165E+00
  0.2165E+00
  0.2165E+00
  0.2165E+00
  0.2165E+00
  0.2165E+00
  0.2165E+00
  0.2165E+00
  0.2165E+00
  0.2165E+00
  0.2165E+00
  0.2165E+00
  0.2165E+00
  0.2165E+00
  0.2164E+00
  0.2161E+00
  0.2154E+00
  0.2141E+00
  0.2121E+00
  0.2095E+00
  0.2066E+00
  0.2040E+00
  0.2021E+00
  0.2009E+00
  0.2003E+00
  0.2001E+00
  0.2000E+00
  0.2000E+00
  0.2000E+00
  0.2000E+00
  0.2000E+00
  0.2000E+00
  0.2000E+00
  0.2000E+00
  0.2000E+00
  0.2000E+00
  0.2000E+00
  0.2000E+00
  0.2000E+00
  0.2000E+00
  0.2000E+00
  0.2000E+00
  0.2000E+00
  0.2000E+00
  0.2000E+00
  0.2000E+00
  0.2000E+00
  0.2000E+00
  0.2000E+00
  0.2000E+00
  0.2000E+00
  0.2000E+00
  0.2000E+00
  0.2000E+00
  0.2000E+00
  0.2003E+00
  0.2003E+00
  0.2003E+00
  0.2003E+00
  0.2003E+00
  0.2003E+00
  0.2003E+00
  0.2003E+00
  0.2003E+00
  0.2003E+00
  0.2003E+00
  0.2003E+00
  0.2003E+00
  0.2003E+00
  0.2003E+00
  0.2003E+00
  0.2003E+00
  0.2003E+00
  0.2003E+00
  0.2003E+00
  0.2003E+00
  0.2002E+00
  0.2002E+00
  0.2002E+00
  0.2001E+00
  0.2001E+00
  0.2000E+00
  0.2000E+00
  0.2000E+00
  0.2000E+00
  0.2000E+00
  0.2000E+00
  0.2000E+00
  0.2000E+00
  0.2000E+00
  0.2000E+00
  0.2000E+00
  0.2000E+00
  0.2000E+00
  0.2000E+00
  0.2000E+00
  0.2000E+00
  0.2000E+00
  0.2000E+00
  0.2000E+00
  0.2000E+00
  0.2000E+00
  0.2000E+00
  0.2000E+00
  0.2000E+00
  0.2000E+00
  0.2000E+00
  0.2000E+00
  0.2000E+00
  0.2000E+00
  0.2000E+00
  0.2000E+00
  0.2000E+00
  0.2000E+00
  0.2000E+00
  0.2000E+00
  0.2000E+00
  0.2000E+00
  0.2000E+00
  0.2000E+00
  0.2000E+00
  0.2000E+00
  0.2000E+00
  0.2000E+00
  0.2000E+00
  0.2000E+00
  0.2000E+00
  0.2000E+00
  0.2000E+00
  0.2000E+00
  0.2000E+00
  0.2000E+00
  0.2000E+00
  0.2000E+00
  0.2000E+00
  0.2000E+00
  0.2000E+00
  0.2000E+00
  0.2000E+00
  0.2000E+00
  0.2000E+00
  0.2000E+00
  0.2000E+00
  0.2000E+00
  0.2000E+00
  0.2000E+00
  0.2000E+00
  0.2000E+00
  0.2000E+00
  0.2000E+00
  0.2000E+00
  0.2000E+00
  0.2000E+00
  0.2000E+00
  0.2000E+00
  0.2000E+00
  0.2000E+00
  0.2000E+00
  0.2000E+00
  0.2000E+00
  0.2000E+00
  0.2000E+00
  0.2000E+00
  0.2000E+00
  0.2000E+00
  0.2000E+00
  0.2000E+00
  0.2000E+00
  0.2000E+00
  0.2000E+00
  0.2000E+00
  0.2000E+00
  0.2000E+00
  0.2000E+00
  0.2000E+00
  0.2000E+00
  0.2000E+00
  0.2000E+00
  0.2000E+00
  0.2000E+00
  0.2000E+00
  0.2000E+00
  0.2000E+00
  0.2000E+00
  0.2000E+00
  0.2000E+00
  0.2000E+00
  0.2000E+00
  0.2000E+00
  0.2000E+00
  0.2000E+00
  0.2000E+00
  0.2000E+00
  0.2000E+00
  0.2000E+00
  0.2000E+00
  0.2000E+00
  0.2000E+00
  0.2000E+00
  0.2000E+00
  0.2000E+00
  0.2000E+00
  0.2000E+00
  0.2000E+00
  0.2000E+00
  0.2000E+00
  0.2000E+00
  0.2000E+00
  0.2000E+00
  0.2000E+00
  0.2000E+00
  0.2000E+00
  0.2000E+00
  0.2000E+00
  0.2000E+00
  0.2000E+00
  0.2000E+00
  0.2000E+00
  0.2000E+00
  0.2000E+00
  0.2000E+00
  0.2000E+00
  0.2000E+00
  0.2000E+00
  0.2000E+00
  0.2000E+00
  0.2000E+00
  0.2000E+00
  0.2000E+00
  0.2000E+00
  0.2000E+00
  0.2000E+00
  0.2000E+00
  0.2000E+00
  0.2000E+00
  0.2000E+00
  0.2000E+00
  0.2000E+00
  0.2000E+00
  0.2000E+00
  0.2000E+00
  0.2000E+00
  0.2000E+00
  0.2000E+00
  0.2000E+00
  0.2000E+00
  0.2000E+00
  0.2000E+00
  0.2000E+00
  0.2000E+00
  0.2000E+00
  0.2000E+00
  0.2000E+00
  0.2000E+00
  0.2000E+00
  0.2000E+00
  0.2000E+00
  0.2000E+00
  0.2000E+00
  0.2000E+00
  0.2000E+00
  0.2000E+00
  0.2000E+00
  0.2000E+00
  0.2000E+00
  0.2000E+00
  0.2000E+00
  0.2000E+00
  0.2000E+00
  0.2000E+00
  0.2000E+00
  0.2000E+00
  0.2000E+00
  0.2000E+00
  0.2000E+00
  0.2000E+00
  0.2000E+00
  0.2000E+00
  0.2000E+00
  0.2000E+00
  0.2000E+00
  0.2000E+00
  0.2000E+00
  0.2000E+00
  0.2000E+00
  0.2000E+00
  0.2000E+00
  0.2000E+00
  0.2000E+00
  0.2000E+00
  0.2000E+00
  0.2000E+00
  0.2000E+00
  0.2000E+00
  0.2000E+00
  0.2000E+00
  0.2000E+00
  0.2000E+00
  0.2000E+00
  0.2000E+00
  0.2000E+00
  0.2000E+00
  0.2000E+00
  0.2000E+00
  0.2000E+00
  0.2000E+00
  0.2000E+00
  0.2000E+00
  0.2000E+00
  0.2000E+00
  0.2000E+00
  0.2000E+00
  0.2000E+00
  0.2000E+00
  0.2000E+00
  0.2000E+00
  0.2000E+00
  0.2000E+00
  0.2000E+00
  0.2000E+00
  0.2000E+00
  0.2000E+00
  0.2000E+00
  0.2000E+00
  0.2000E+00
  0.2000E+00
  0.2000E+00
  0.2000E+00
  0.2000E+00
  0.2000E+00
  0.2000E+00
  0.2000E+00
  0.2000E+00
  0.2000E+00
  0.2000E+00
  0.2000E+00
  0.2000E+00
  0.2000E+00
  0.2000E+00
  0.2000E+00
  0.2000E+00
  0.2000E+00
  0.2000E+00
  0.2000E+00
  0.2000E+00
  0.2000E+00
  0.2000E+00
  0.2000E+00
  0.2000E+00
  0.2000E+00
  0.2000E+00
  0.2000E+00
  0.2000E+00
  0.2000E+00
  0.2000E+00
  0.2000E+00
  0.2000E+00
  0.2000E+00
  0.2000E+00
  0.2000E+00
  0.2000E+00
  0.2000E+00
  0.2000E+00
  0.2000E+00
  0.2000E+00
  0.2000E+00
  0.2000E+00
  0.2000E+00
  0.2000E+00
  0.2000E+00
  0.2000E+00
  0.2000E+00
  0.2000E+00
  0.2000E+00
  0.2000E+00
  0.2000E+00
  0.2000E+00
  0.2000E+00
  0.2000E+00
  0.2000E+00
  0.2000E+00
  0.2000E+00
  0.2000E+00
  0.2000E+00
  0.2000E+00
  0.2000E+00
  0.2000E+00
  0.2000E+00
  0.2000E+00
  0.2000E+00
  0.2000E+00
  0.2000E+00
  0.2000E+00
  0.2000E+00
  0.2000E+00
  0.2000E+00
  0.2000E+00
  0.2000E+00
  0.2000E+00
  0.2000E+00
  0.2000E+00
  0.2000E+00
  0.2000E+00
  0.2000E+00
  0.2000E+00
  0.2000E+00
  0.2000E+00
  0.2000E+00
  0.2000E+00
  0.2000E+00
  0.2000E+00
  0.2000E+00
  0.2000E+00
  0.2000E+00
  0.2000E+00
  0.2000E+00
  0.2000E+00
  0.2000E+00
  0.2000E+00