# vtk DataFile Version 3.0
vtk output
ASCII
DATASET RECTILINEAR_GRID
DIMENSIONS          61          61 1
X_COORDINATES    61 double
  0.0000E+00
  0.1667E+00
  0.3333E+00
  0.5000E+00
  0.6667E+00
  0.8333E+00
  0.1000E+01
  0.1167E+01
  0.1333E+01
  0.1500E+01
  0.1667E+01
  0.1833E+01
  0.2000E+01
  0.2167E+01
  0.2333E+01
  0.2500E+01
  0.2667E+01
  0.2833E+01
  0.3000E+01
  0.3167E+01
  0.3333E+01
  0.3500E+01
  0.3667E+01
  0.3833E+01
  0.4000E+01
  0.4167E+01
  0.4333E+01
  0.4500E+01
  0.4667E+01
  0.4833E+01
  0.5000E+01
  0.5167E+01
  0.5333E+01
  0.5500E+01
  0.5667E+01
  0.5833E+01
  0.6000E+01
  0.6167E+01
  0.6333E+01
  0.6500E+01
  0.6667E+01
  0.6833E+01
  0.7000E+01
  0.7167E+01
  0.7333E+01
  0.7500E+01
  0.7667E+01
  0.7833E+01
  0.8000E+01
  0.8167E+01
  0.8333E+01
  0.8500E+01
  0.8667E+01
  0.8833E+01
  0.9000E+01
  0.9167E+01
  0.9333E+01
  0.9500E+01
  0.9667E+01
  0.9833E+01
  0.1000E+02
Y_COORDINATES    61 double
  0.0000E+00
  0.1667E+00
  0.3333E+00
  0.5000E+00
  0.6667E+00
  0.8333E+00
  0.1000E+01
  0.1167E+01
  0.1333E+01
  0.1500E+01
  0.1667E+01
  0.1833E+01
  0.2000E+01
  0.2167E+01
  0.2333E+01
  0.2500E+01
  0.2667E+01
  0.2833E+01
  0.3000E+01
  0.3167E+01
  0.3333E+01
  0.3500E+01
  0.3667E+01
  0.3833E+01
  0.4000E+01
  0.4167E+01
  0.4333E+01
  0.4500E+01
  0.4667E+01
  0.4833E+01
  0.5000E+01
  0.5167E+01
  0.5333E+01
  0.5500E+01
  0.5667E+01
  0.5833E+01
  0.6000E+01
  0.6167E+01
  0.6333E+01
  0.6500E+01
  0.6667E+01
  0.6833E+01
  0.7000E+01
  0.7167E+01
  0.7333E+01
  0.7500E+01
  0.7667E+01
  0.7833E+01
  0.8000E+01
  0.8167E+01
  0.8333E+01
  0.8500E+01
  0.8667E+01
  0.8833E+01
  0.9000E+01
  0.9167E+01
  0.9333E+01
  0.9500E+01
  0.9667E+01
  0.9833E+01
  0.1000E+02
Z_COORDINATES 1 double
0
CELL_DATA                 3600
FIELD FieldData 4
density 1                 3600 double
  0.2260E+01
  0.2260E+01
  0.2259E+01
  0.2255E+01
  0.2244E+01
  0.2223E+01
  0.2188E+01
  0.2139E+01
  0.2079E+01
  0.2014E+01
  0.1948E+01
  0.1881E+01
  0.1815E+01
  0.1751E+01
  0.1689E+01
  0.1628E+01
  0.1569E+01
  0.1513E+01
  0.1458E+01
  0.1406E+01
  0.1355E+01
  0.1307E+01
  0.1260E+01
  0.1215E+01
  0.1172E+01
  0.1131E+01
  0.1091E+01
  0.1053E+01
  0.1016E+01
  0.9806E+00
  0.9465E+00
  0.9137E+00
  0.8822E+00
  0.8518E+00
  0.8226E+00
  0.7946E+00
  0.7676E+00
  0.7416E+00
  0.7167E+00
  0.6929E+00
  0.6702E+00
  0.6486E+00
  0.6281E+00
  0.6086E+00
  0.5903E+00
  0.5735E+00
  0.5595E+00
  0.5489E+00
  0.5452E+00
  0.5457E+00
  0.5501E+00
  0.5578E+00
  0.5654E+00
  0.5905E+00
  0.7240E+00
  0.1140E+01
  0.2098E+01
  0.2146E+01
  0.1653E+01
  0.1435E+01
  0.2260E+01
  0.2259E+01
  0.2258E+01
  0.2254E+01
  0.2243E+01
  0.2223E+01
  0.2187E+01
  0.2138E+01
  0.2079E+01
  0.2014E+01
  0.1947E+01
  0.1880E+01
  0.1815E+01
  0.1750E+01
  0.1688E+01
  0.1627E+01
  0.1569E+01
  0.1512E+01
  0.1458E+01
  0.1405E+01
  0.1355E+01
  0.1306E+01
  0.1260E+01
  0.1215E+01
  0.1172E+01
  0.1130E+01
  0.1091E+01
  0.1052E+01
  0.1016E+01
  0.9801E+00
  0.9461E+00
  0.9133E+00
  0.8818E+00
  0.8514E+00
  0.8222E+00
  0.7941E+00
  0.7671E+00
  0.7412E+00
  0.7163E+00
  0.6925E+00
  0.6698E+00
  0.6482E+00
  0.6276E+00
  0.6082E+00
  0.5899E+00
  0.5730E+00
  0.5590E+00
  0.5484E+00
  0.5445E+00
  0.5450E+00
  0.5492E+00
  0.5570E+00
  0.5647E+00
  0.5904E+00
  0.7254E+00
  0.1144E+01
  0.2107E+01
  0.2150E+01
  0.1655E+01
  0.1444E+01
  0.2258E+01
  0.2257E+01
  0.2256E+01
  0.2252E+01
  0.2242E+01
  0.2221E+01
  0.2186E+01
  0.2137E+01
  0.2077E+01
  0.2013E+01
  0.1946E+01
  0.1879E+01
  0.1814E+01
  0.1749E+01
  0.1687E+01
  0.1626E+01
  0.1568E+01
  0.1511E+01
  0.1457E+01
  0.1404E+01
  0.1354E+01
  0.1305E+01
  0.1259E+01
  0.1214E+01
  0.1171E+01
  0.1129E+01
  0.1090E+01
  0.1051E+01
  0.1015E+01
  0.9793E+00
  0.9452E+00
  0.9124E+00
  0.8809E+00
  0.8506E+00
  0.8214E+00
  0.7933E+00
  0.7663E+00
  0.7403E+00
  0.7155E+00
  0.6916E+00
  0.6689E+00
  0.6473E+00
  0.6268E+00
  0.6073E+00
  0.5890E+00
  0.5721E+00
  0.5580E+00
  0.5474E+00
  0.5432E+00
  0.5435E+00
  0.5475E+00
  0.5553E+00
  0.5635E+00
  0.5904E+00
  0.7281E+00
  0.1153E+01
  0.2125E+01
  0.2151E+01
  0.1658E+01
  0.1447E+01
  0.2255E+01
  0.2255E+01
  0.2253E+01
  0.2249E+01
  0.2239E+01
  0.2219E+01
  0.2184E+01
  0.2135E+01
  0.2076E+01
  0.2011E+01
  0.1944E+01
  0.1878E+01
  0.1812E+01
  0.1748E+01
  0.1685E+01
  0.1625E+01
  0.1566E+01
  0.1510E+01
  0.1455E+01
  0.1403E+01
  0.1352E+01
  0.1304E+01
  0.1257E+01
  0.1212E+01
  0.1169E+01
  0.1128E+01
  0.1088E+01
  0.1050E+01
  0.1013E+01
  0.9779E+00
  0.9439E+00
  0.9111E+00
  0.8796E+00
  0.8493E+00
  0.8201E+00
  0.7920E+00
  0.7650E+00
  0.7390E+00
  0.7142E+00
  0.6903E+00
  0.6676E+00
  0.6460E+00
  0.6255E+00
  0.6060E+00
  0.5876E+00
  0.5707E+00
  0.5566E+00
  0.5458E+00
  0.5412E+00
  0.5414E+00
  0.5452E+00
  0.5529E+00
  0.5616E+00
  0.5904E+00
  0.7321E+00
  0.1166E+01
  0.2152E+01
  0.2147E+01
  0.1657E+01
  0.1441E+01
  0.2251E+01
  0.2251E+01
  0.2250E+01
  0.2246E+01
  0.2236E+01
  0.2215E+01
  0.2181E+01
  0.2132E+01
  0.2073E+01
  0.2008E+01
  0.1942E+01
  0.1875E+01
  0.1810E+01
  0.1746E+01
  0.1683E+01
  0.1623E+01
  0.1564E+01
  0.1508E+01
  0.1453E+01
  0.1401E+01
  0.1350E+01
  0.1302E+01
  0.1255E+01
  0.1210E+01
  0.1167E+01
  0.1126E+01
  0.1086E+01
  0.1048E+01
  0.1011E+01
  0.9761E+00
  0.9421E+00
  0.9093E+00
  0.8778E+00
  0.8475E+00
  0.8183E+00
  0.7902E+00
  0.7632E+00
  0.7373E+00
  0.7124E+00
  0.6886E+00
  0.6659E+00
  0.6442E+00
  0.6237E+00
  0.6042E+00
  0.5858E+00
  0.5689E+00
  0.5545E+00
  0.5437E+00
  0.5384E+00
  0.5385E+00
  0.5419E+00
  0.5499E+00
  0.5596E+00
  0.5911E+00
  0.7404E+00
  0.1189E+01
  0.2183E+01
  0.2140E+01
  0.1653E+01
  0.1440E+01
  0.2247E+01
  0.2246E+01
  0.2245E+01
  0.2241E+01
  0.2231E+01
  0.2211E+01
  0.2177E+01
  0.2129E+01
  0.2070E+01
  0.2005E+01
  0.1939E+01
  0.1872E+01
  0.1807E+01
  0.1743E+01
  0.1680E+01
  0.1620E+01
  0.1561E+01
  0.1505E+01
  0.1450E+01
  0.1398E+01
  0.1348E+01
  0.1299E+01
  0.1253E+01
  0.1208E+01
  0.1165E+01
  0.1124E+01
  0.1084E+01
  0.1046E+01
  0.1009E+01
  0.9737E+00
  0.9397E+00
  0.9070E+00
  0.8755E+00
  0.8452E+00
  0.8160E+00
  0.7879E+00
  0.7609E+00
  0.7350E+00
  0.7101E+00
  0.6863E+00
  0.6636E+00
  0.6419E+00
  0.6213E+00
  0.6018E+00
  0.5834E+00
  0.5664E+00
  0.5519E+00
  0.5408E+00
  0.5348E+00
  0.5346E+00
  0.5379E+00
  0.5466E+00
  0.5574E+00
  0.5927E+00
  0.7519E+00
  0.1223E+01
  0.2215E+01
  0.2129E+01
  0.1644E+01
  0.1445E+01
  0.2241E+01
  0.2241E+01
  0.2239E+01
  0.2235E+01
  0.2226E+01
  0.2206E+01
  0.2172E+01
  0.2124E+01
  0.2066E+01
  0.2002E+01
  0.1935E+01
  0.1869E+01
  0.1803E+01
  0.1739E+01
  0.1677E+01
  0.1616E+01
  0.1558E+01
  0.1501E+01
  0.1447E+01
  0.1395E+01
  0.1344E+01
  0.1296E+01
  0.1249E+01
  0.1205E+01
  0.1162E+01
  0.1121E+01
  0.1081E+01
  0.1043E+01
  0.1006E+01
  0.9708E+00
  0.9368E+00
  0.9041E+00
  0.8726E+00
  0.8423E+00
  0.8131E+00
  0.7851E+00
  0.7581E+00
  0.7322E+00
  0.7073E+00
  0.6834E+00
  0.6607E+00
  0.6390E+00
  0.6184E+00
  0.5989E+00
  0.5804E+00
  0.5634E+00
  0.5486E+00
  0.5372E+00
  0.5304E+00
  0.5299E+00
  0.5334E+00
  0.5426E+00
  0.5553E+00
  0.5969E+00
  0.7715E+00
  0.1273E+01
  0.2244E+01
  0.2108E+01
  0.1619E+01
  0.1447E+01
  0.2234E+01
  0.2234E+01
  0.2232E+01
  0.2229E+01
  0.2219E+01
  0.2200E+01
  0.2167E+01
  0.2119E+01
  0.2061E+01
  0.1997E+01
  0.1931E+01
  0.1864E+01
  0.1799E+01
  0.1735E+01
  0.1673E+01
  0.1612E+01
  0.1554E+01
  0.1497E+01
  0.1443E+01
  0.1391E+01
  0.1340E+01
  0.1292E+01
  0.1246E+01
  0.1201E+01
  0.1158E+01
  0.1117E+01
  0.1077E+01
  0.1039E+01
  0.1002E+01
  0.9672E+00
  0.9332E+00
  0.9005E+00
  0.8691E+00
  0.8388E+00
  0.8096E+00
  0.7816E+00
  0.7546E+00
  0.7287E+00
  0.7038E+00
  0.6799E+00
  0.6572E+00
  0.6355E+00
  0.6148E+00
  0.5952E+00
  0.5767E+00
  0.5596E+00
  0.5445E+00
  0.5327E+00
  0.5250E+00
  0.5244E+00
  0.5283E+00
  0.5381E+00
  0.5544E+00
  0.6064E+00
  0.8030E+00
  0.1339E+01
  0.2269E+01
  0.2073E+01
  0.1585E+01
  0.1442E+01
  0.2226E+01
  0.2225E+01
  0.2224E+01
  0.2221E+01
  0.2212E+01
  0.2193E+01
  0.2160E+01
  0.2113E+01
  0.2055E+01
  0.1991E+01
  0.1925E+01
  0.1859E+01
  0.1794E+01
  0.1730E+01
  0.1668E+01
  0.1607E+01
  0.1549E+01
  0.1492E+01
  0.1438E+01
  0.1386E+01
  0.1336E+01
  0.1287E+01
  0.1241E+01
  0.1196E+01
  0.1154E+01
  0.1112E+01
  0.1073E+01
  0.1035E+01
  0.9981E+00
  0.9629E+00
  0.9289E+00
  0.8963E+00
  0.8648E+00
  0.8346E+00
  0.8054E+00
  0.7774E+00
  0.7504E+00
  0.7245E+00
  0.6996E+00
  0.6757E+00
  0.6529E+00
  0.6312E+00
  0.6105E+00
  0.5908E+00
  0.5722E+00
  0.5549E+00
  0.5395E+00
  0.5270E+00
  0.5188E+00
  0.5182E+00
  0.5225E+00
  0.5347E+00
  0.5582E+00
  0.6262E+00
  0.8481E+00
  0.1420E+01
  0.2280E+01
  0.2020E+01
  0.1544E+01
  0.1435E+01
  0.2216E+01
  0.2216E+01
  0.2215E+01
  0.2211E+01
  0.2203E+01
  0.2184E+01
  0.2152E+01
  0.2106E+01
  0.2048E+01
  0.1985E+01
  0.1919E+01
  0.1853E+01
  0.1788E+01
  0.1724E+01
  0.1662E+01
  0.1601E+01
  0.1543E+01
  0.1487E+01
  0.1433E+01
  0.1380E+01
  0.1330E+01
  0.1282E+01
  0.1236E+01
  0.1191E+01
  0.1148E+01
  0.1107E+01
  0.1068E+01
  0.1030E+01
  0.9930E+00
  0.9578E+00
  0.9239E+00
  0.8912E+00
  0.8598E+00
  0.8296E+00
  0.8004E+00
  0.7724E+00
  0.7454E+00
  0.7195E+00
  0.6945E+00
  0.6706E+00
  0.6478E+00
  0.6260E+00
  0.6052E+00
  0.5854E+00
  0.5667E+00
  0.5491E+00
  0.5332E+00
  0.5201E+00
  0.5115E+00
  0.5113E+00
  0.5167E+00
  0.5350E+00
  0.5707E+00
  0.6569E+00
  0.9017E+00
  0.1505E+01
  0.2272E+01
  0.1947E+01
  0.1502E+01
  0.1432E+01
  0.2205E+01
  0.2205E+01
  0.2204E+01
  0.2201E+01
  0.2192E+01
  0.2174E+01
  0.2143E+01
  0.2097E+01
  0.2041E+01
  0.1977E+01
  0.1912E+01
  0.1846E+01
  0.1780E+01
  0.1717E+01
  0.1655E+01
  0.1595E+01
  0.1536E+01
  0.1480E+01
  0.1426E+01
  0.1374E+01
  0.1324E+01
  0.1275E+01
  0.1229E+01
  0.1185E+01
  0.1142E+01
  0.1101E+01
  0.1062E+01
  0.1024E+01
  0.9870E+00
  0.9518E+00
  0.9179E+00
  0.8853E+00
  0.8539E+00
  0.8237E+00
  0.7946E+00
  0.7665E+00
  0.7395E+00
  0.7135E+00
  0.6885E+00
  0.6645E+00
  0.6416E+00
  0.6196E+00
  0.5987E+00
  0.5788E+00
  0.5598E+00
  0.5418E+00
  0.5255E+00
  0.5111E+00
  0.5032E+00
  0.5040E+00
  0.5136E+00
  0.5440E+00
  0.5958E+00
  0.7003E+00
  0.9638E+00
  0.1584E+01
  0.2230E+01
  0.1848E+01
  0.1451E+01
  0.1425E+01
  0.2192E+01
  0.2192E+01
  0.2191E+01
  0.2188E+01
  0.2180E+01
  0.2163E+01
  0.2133E+01
  0.2088E+01
  0.2031E+01
  0.1969E+01
  0.1903E+01
  0.1837E+01
  0.1772E+01
  0.1709E+01
  0.1647E+01
  0.1587E+01
  0.1529E+01
  0.1472E+01
  0.1418E+01
  0.1366E+01
  0.1316E+01
  0.1268E+01
  0.1222E+01
  0.1178E+01
  0.1135E+01
  0.1094E+01
  0.1054E+01
  0.1017E+01
  0.9800E+00
  0.9448E+00
  0.9110E+00
  0.8784E+00
  0.8470E+00
  0.8167E+00
  0.7875E+00
  0.7594E+00
  0.7323E+00
  0.7062E+00
  0.6811E+00
  0.6570E+00
  0.6339E+00
  0.6118E+00
  0.5907E+00
  0.5705E+00
  0.5512E+00
  0.5327E+00
  0.5157E+00
  0.4997E+00
  0.4947E+00
  0.4977E+00
  0.5172E+00
  0.5666E+00
  0.6348E+00
  0.7498E+00
  0.1024E+01
  0.1652E+01
  0.2152E+01
  0.1728E+01
  0.1400E+01
  0.1409E+01
  0.2178E+01
  0.2178E+01
  0.2177E+01
  0.2174E+01
  0.2167E+01
  0.2150E+01
  0.2121E+01
  0.2077E+01
  0.2021E+01
  0.1959E+01
  0.1893E+01
  0.1828E+01
  0.1763E+01
  0.1699E+01
  0.1638E+01
  0.1578E+01
  0.1520E+01
  0.1464E+01
  0.1410E+01
  0.1358E+01
  0.1308E+01
  0.1260E+01
  0.1213E+01
  0.1169E+01
  0.1127E+01
  0.1086E+01
  0.1046E+01
  0.1008E+01
  0.9718E+00
  0.9367E+00
  0.9028E+00
  0.8702E+00
  0.8387E+00
  0.8084E+00
  0.7791E+00
  0.7509E+00
  0.7237E+00
  0.6974E+00
  0.6721E+00
  0.6478E+00
  0.6245E+00
  0.6021E+00
  0.5807E+00
  0.5602E+00
  0.5405E+00
  0.5214E+00
  0.5029E+00
  0.4877E+00
  0.4864E+00
  0.4972E+00
  0.5368E+00
  0.6045E+00
  0.6821E+00
  0.7989E+00
  0.1079E+01
  0.1697E+01
  0.2045E+01
  0.1615E+01
  0.1351E+01
  0.1382E+01
  0.2162E+01
  0.2162E+01
  0.2161E+01
  0.2158E+01
  0.2151E+01
  0.2135E+01
  0.2107E+01
  0.2064E+01
  0.2009E+01
  0.1947E+01
  0.1882E+01
  0.1817E+01
  0.1752E+01
  0.1689E+01
  0.1627E+01
  0.1567E+01
  0.1509E+01
  0.1453E+01
  0.1400E+01
  0.1348E+01
  0.1298E+01
  0.1250E+01
  0.1204E+01
  0.1159E+01
  0.1117E+01
  0.1076E+01
  0.1037E+01
  0.9987E+00
  0.9621E+00
  0.9270E+00
  0.8930E+00
  0.8603E+00
  0.8288E+00
  0.7983E+00
  0.7689E+00
  0.7405E+00
  0.7131E+00
  0.6866E+00
  0.6611E+00
  0.6365E+00
  0.6129E+00
  0.5902E+00
  0.5685E+00
  0.5476E+00
  0.5272E+00
  0.5073E+00
  0.4865E+00
  0.4784E+00
  0.4833E+00
  0.5123E+00
  0.5731E+00
  0.6540E+00
  0.7307E+00
  0.8416E+00
  0.1125E+01
  0.1722E+01
  0.1899E+01
  0.1498E+01
  0.1300E+01
  0.1345E+01
  0.2144E+01
  0.2144E+01
  0.2143E+01
  0.2140E+01
  0.2134E+01
  0.2119E+01
  0.2091E+01
  0.2050E+01
  0.1996E+01
  0.1934E+01
  0.1870E+01
  0.1804E+01
  0.1740E+01
  0.1677E+01
  0.1615E+01
  0.1555E+01
  0.1498E+01
  0.1442E+01
  0.1388E+01
  0.1336E+01
  0.1286E+01
  0.1238E+01
  0.1192E+01
  0.1148E+01
  0.1105E+01
  0.1065E+01
  0.1025E+01
  0.9871E+00
  0.9505E+00
  0.9153E+00
  0.8812E+00
  0.8484E+00
  0.8167E+00
  0.7860E+00
  0.7564E+00
  0.7278E+00
  0.7001E+00
  0.6734E+00
  0.6476E+00
  0.6227E+00
  0.5988E+00
  0.5758E+00
  0.5538E+00
  0.5323E+00
  0.5113E+00
  0.4888E+00
  0.4727E+00
  0.4743E+00
  0.4939E+00
  0.5456E+00
  0.6241E+00
  0.7056E+00
  0.7713E+00
  0.8738E+00
  0.1160E+01
  0.1721E+01
  0.1735E+01
  0.1378E+01
  0.1254E+01
  0.1306E+01
  0.2123E+01
  0.2123E+01
  0.2122E+01
  0.2120E+01
  0.2114E+01
  0.2100E+01
  0.2073E+01
  0.2033E+01
  0.1980E+01
  0.1919E+01
  0.1855E+01
  0.1790E+01
  0.1726E+01
  0.1663E+01
  0.1601E+01
  0.1542E+01
  0.1484E+01
  0.1428E+01
  0.1374E+01
  0.1322E+01
  0.1273E+01
  0.1225E+01
  0.1179E+01
  0.1134E+01
  0.1092E+01
  0.1051E+01
  0.1011E+01
  0.9733E+00
  0.9366E+00
  0.9011E+00
  0.8669E+00
  0.8339E+00
  0.8020E+00
  0.7711E+00
  0.7413E+00
  0.7124E+00
  0.6845E+00
  0.6575E+00
  0.6314E+00
  0.6063E+00
  0.5821E+00
  0.5590E+00
  0.5364E+00
  0.5145E+00
  0.4916E+00
  0.4699E+00
  0.4682E+00
  0.4820E+00
  0.5258E+00
  0.5980E+00
  0.6809E+00
  0.7508E+00
  0.8014E+00
  0.8975E+00
  0.1187E+01
  0.1660E+01
  0.1578E+01
  0.1269E+01
  0.1219E+01
  0.1268E+01
  0.2099E+01
  0.2099E+01
  0.2098E+01
  0.2096E+01
  0.2091E+01
  0.2077E+01
  0.2052E+01
  0.2013E+01
  0.1961E+01
  0.1902E+01
  0.1838E+01
  0.1773E+01
  0.1709E+01
  0.1646E+01
  0.1585E+01
  0.1525E+01
  0.1468E+01
  0.1412E+01
  0.1358E+01
  0.1306E+01
  0.1257E+01
  0.1209E+01
  0.1163E+01
  0.1118E+01
  0.1076E+01
  0.1034E+01
  0.9948E+00
  0.9566E+00
  0.9198E+00
  0.8842E+00
  0.8498E+00
  0.8165E+00
  0.7844E+00
  0.7534E+00
  0.7233E+00
  0.6942E+00
  0.6661E+00
  0.6389E+00
  0.6126E+00
  0.5873E+00
  0.5631E+00
  0.5396E+00
  0.5168E+00
  0.4932E+00
  0.4690E+00
  0.4652E+00
  0.4735E+00
  0.5104E+00
  0.5761E+00
  0.6573E+00
  0.7322E+00
  0.7867E+00
  0.8245E+00
  0.9142E+00
  0.1198E+01
  0.1544E+01
  0.1413E+01
  0.1184E+01
  0.1192E+01
  0.1234E+01
  0.2071E+01
  0.2071E+01
  0.2071E+01
  0.2069E+01
  0.2064E+01
  0.2051E+01
  0.2028E+01
  0.1990E+01
  0.1940E+01
  0.1881E+01
  0.1817E+01
  0.1753E+01
  0.1689E+01
  0.1626E+01
  0.1565E+01
  0.1506E+01
  0.1448E+01
  0.1393E+01
  0.1339E+01
  0.1287E+01
  0.1237E+01
  0.1189E+01
  0.1143E+01
  0.1099E+01
  0.1056E+01
  0.1015E+01
  0.9751E+00
  0.9368E+00
  0.8998E+00
  0.8641E+00
  0.8295E+00
  0.7962E+00
  0.7639E+00
  0.7327E+00
  0.7025E+00
  0.6733E+00
  0.6450E+00
  0.6178E+00
  0.5915E+00
  0.5663E+00
  0.5419E+00
  0.5183E+00
  0.4943E+00
  0.4686E+00
  0.4634E+00
  0.4695E+00
  0.5011E+00
  0.5593E+00
  0.6348E+00
  0.7093E+00
  0.7682E+00
  0.8102E+00
  0.8411E+00
  0.9244E+00
  0.1181E+01
  0.1382E+01
  0.1260E+01
  0.1115E+01
  0.1169E+01
  0.1206E+01
  0.2039E+01
  0.2039E+01
  0.2038E+01
  0.2037E+01
  0.2032E+01
  0.2021E+01
  0.1998E+01
  0.1962E+01
  0.1913E+01
  0.1855E+01
  0.1793E+01
  0.1729E+01
  0.1665E+01
  0.1603E+01
  0.1542E+01
  0.1483E+01
  0.1425E+01
  0.1370E+01
  0.1316E+01
  0.1264E+01
  0.1214E+01
  0.1167E+01
  0.1120E+01
  0.1076E+01
  0.1033E+01
  0.9919E+00
  0.9521E+00
  0.9137E+00
  0.8767E+00
  0.8409E+00
  0.8063E+00
  0.7729E+00
  0.7406E+00
  0.7094E+00
  0.6792E+00
  0.6500E+00
  0.6219E+00
  0.5948E+00
  0.5688E+00
  0.5436E+00
  0.5193E+00
  0.4947E+00
  0.4687E+00
  0.4620E+00
  0.4672E+00
  0.4959E+00
  0.5521E+00
  0.6256E+00
  0.6975E+00
  0.7537E+00
  0.7968E+00
  0.8279E+00
  0.8483E+00
  0.9189E+00
  0.1092E+01
  0.1196E+01
  0.1149E+01
  0.1068E+01
  0.1145E+01
  0.1175E+01
  0.2001E+01
  0.2001E+01
  0.2000E+01
  0.1999E+01
  0.1995E+01
  0.1984E+01
  0.1964E+01
  0.1930E+01
  0.1882E+01
  0.1826E+01
  0.1764E+01
  0.1701E+01
  0.1637E+01
  0.1575E+01
  0.1514E+01
  0.1455E+01
  0.1398E+01
  0.1343E+01
  0.1289E+01
  0.1238E+01
  0.1188E+01
  0.1140E+01
  0.1094E+01
  0.1050E+01
  0.1007E+01
  0.9657E+00
  0.9259E+00
  0.8876E+00
  0.8506E+00
  0.8149E+00
  0.7804E+00
  0.7471E+00
  0.7150E+00
  0.6840E+00
  0.6541E+00
  0.6252E+00
  0.5974E+00
  0.5707E+00
  0.5449E+00
  0.5200E+00
  0.4950E+00
  0.4679E+00
  0.4611E+00
  0.4655E+00
  0.4900E+00
  0.5395E+00
  0.6109E+00
  0.6879E+00
  0.7499E+00
  0.7957E+00
  0.8274E+00
  0.8360E+00
  0.8387E+00
  0.8625E+00
  0.9387E+00
  0.1033E+01
  0.1087E+01
  0.1048E+01
  0.1111E+01
  0.1143E+01
  0.1957E+01
  0.1957E+01
  0.1957E+01
  0.1955E+01
  0.1952E+01
  0.1942E+01
  0.1923E+01
  0.1891E+01
  0.1846E+01
  0.1791E+01
  0.1730E+01
  0.1667E+01
  0.1605E+01
  0.1543E+01
  0.1483E+01
  0.1424E+01
  0.1367E+01
  0.1312E+01
  0.1259E+01
  0.1207E+01
  0.1158E+01
  0.1110E+01
  0.1064E+01
  0.1020E+01
  0.9775E+00
  0.9365E+00
  0.8970E+00
  0.8589E+00
  0.8222E+00
  0.7868E+00
  0.7526E+00
  0.7197E+00
  0.6880E+00
  0.6574E+00
  0.6279E+00
  0.5995E+00
  0.5723E+00
  0.5460E+00
  0.5205E+00
  0.4952E+00
  0.4683E+00
  0.4604E+00
  0.4646E+00
  0.4899E+00
  0.5374E+00
  0.6006E+00
  0.6700E+00
  0.7318E+00
  0.7809E+00
  0.8198E+00
  0.8324E+00
  0.8268E+00
  0.7809E+00
  0.7380E+00
  0.7807E+00
  0.9267E+00
  0.1059E+01
  0.1050E+01
  0.1072E+01
  0.1116E+01
  0.1907E+01
  0.1907E+01
  0.1907E+01
  0.1906E+01
  0.1903E+01
  0.1894E+01
  0.1877E+01
  0.1847E+01
  0.1804E+01
  0.1750E+01
  0.1691E+01
  0.1629E+01
  0.1567E+01
  0.1506E+01
  0.1447E+01
  0.1388E+01
  0.1332E+01
  0.1277E+01
  0.1224E+01
  0.1173E+01
  0.1124E+01
  0.1077E+01
  0.1032E+01
  0.9879E+00
  0.9457E+00
  0.9052E+00
  0.8661E+00
  0.8285E+00
  0.7923E+00
  0.7574E+00
  0.7238E+00
  0.6914E+00
  0.6603E+00
  0.6303E+00
  0.6015E+00
  0.5738E+00
  0.5471E+00
  0.5212E+00
  0.4954E+00
  0.4685E+00
  0.4605E+00
  0.4642E+00
  0.4867E+00
  0.5374E+00
  0.6060E+00
  0.6740E+00
  0.7279E+00
  0.7710E+00
  0.8053E+00
  0.8209E+00
  0.8153E+00
  0.7639E+00
  0.6621E+00
  0.6112E+00
  0.6703E+00
  0.8526E+00
  0.1036E+01
  0.1068E+01
  0.1043E+01
  0.1096E+01
  0.1853E+01
  0.1852E+01
  0.1852E+01
  0.1851E+01
  0.1849E+01
  0.1841E+01
  0.1826E+01
  0.1798E+01
  0.1757E+01
  0.1706E+01
  0.1648E+01
  0.1587E+01
  0.1526E+01
  0.1466E+01
  0.1407E+01
  0.1350E+01
  0.1294E+01
  0.1240E+01
  0.1188E+01
  0.1137E+01
  0.1089E+01
  0.1042E+01
  0.9972E+00
  0.9541E+00
  0.9126E+00
  0.8727E+00
  0.8343E+00
  0.7973E+00
  0.7618E+00
  0.7276E+00
  0.6947E+00
  0.6631E+00
  0.6327E+00
  0.6035E+00
  0.5755E+00
  0.5485E+00
  0.5223E+00
  0.4961E+00
  0.4687E+00
  0.4609E+00
  0.4648E+00
  0.4874E+00
  0.5310E+00
  0.5973E+00
  0.6752E+00
  0.7376E+00
  0.7802E+00
  0.8098E+00
  0.8187E+00
  0.8076E+00
  0.7465E+00
  0.6432E+00
  0.5461E+00
  0.5385E+00
  0.6050E+00
  0.7852E+00
  0.1001E+01
  0.1085E+01
  0.1040E+01
  0.1079E+01
  0.1794E+01
  0.1794E+01
  0.1793E+01
  0.1793E+01
  0.1790E+01
  0.1784E+01
  0.1770E+01
  0.1745E+01
  0.1707E+01
  0.1657E+01
  0.1601E+01
  0.1542E+01
  0.1482E+01
  0.1423E+01
  0.1365E+01
  0.1308E+01
  0.1253E+01
  0.1200E+01
  0.1149E+01
  0.1099E+01
  0.1052E+01
  0.1006E+01
  0.9620E+00
  0.9196E+00
  0.8790E+00
  0.8399E+00
  0.8023E+00
  0.7662E+00
  0.7315E+00
  0.6981E+00
  0.6661E+00
  0.6353E+00
  0.6058E+00
  0.5775E+00
  0.5501E+00
  0.5237E+00
  0.4972E+00
  0.4693E+00
  0.4611E+00
  0.4651E+00
  0.4882E+00
  0.5341E+00
  0.5955E+00
  0.6633E+00
  0.7265E+00
  0.7784E+00
  0.8179E+00
  0.8221E+00
  0.8088E+00
  0.7399E+00
  0.6322E+00
  0.5439E+00
  0.4985E+00
  0.5061E+00
  0.5677E+00
  0.7244E+00
  0.9395E+00
  0.1082E+01
  0.1052E+01
  0.1057E+01
  0.1732E+01
  0.1732E+01
  0.1732E+01
  0.1732E+01
  0.1730E+01
  0.1724E+01
  0.1712E+01
  0.1689E+01
  0.1653E+01
  0.1606E+01
  0.1552E+01
  0.1495E+01
  0.1436E+01
  0.1378E+01
  0.1322E+01
  0.1266E+01
  0.1212E+01
  0.1160E+01
  0.1110E+01
  0.1061E+01
  0.1015E+01
  0.9699E+00
  0.9268E+00
  0.8854E+00
  0.8457E+00
  0.8075E+00
  0.7709E+00
  0.7357E+00
  0.7020E+00
  0.6695E+00
  0.6384E+00
  0.6085E+00
  0.5799E+00
  0.5522E+00
  0.5255E+00
  0.4988E+00
  0.4706E+00
  0.4616E+00
  0.4654E+00
  0.4880E+00
  0.5339E+00
  0.5972E+00
  0.6656E+00
  0.7228E+00
  0.7677E+00
  0.8039E+00
  0.8208E+00
  0.8104E+00
  0.7402E+00
  0.6291E+00
  0.5425E+00
  0.5037E+00
  0.4958E+00
  0.5021E+00
  0.5429E+00
  0.6673E+00
  0.8571E+00
  0.1039E+01
  0.1067E+01
  0.1039E+01
  0.1670E+01
  0.1670E+01
  0.1670E+01
  0.1670E+01
  0.1668E+01
  0.1663E+01
  0.1653E+01
  0.1632E+01
  0.1599E+01
  0.1555E+01
  0.1503E+01
  0.1447E+01
  0.1390E+01
  0.1334E+01
  0.1278E+01
  0.1224E+01
  0.1171E+01
  0.1120E+01
  0.1071E+01
  0.1024E+01
  0.9782E+00
  0.9344E+00
  0.8924E+00
  0.8521E+00
  0.8134E+00
  0.7762E+00
  0.7406E+00
  0.7064E+00
  0.6736E+00
  0.6421E+00
  0.6119E+00
  0.5829E+00
  0.5548E+00
  0.5277E+00
  0.5005E+00
  0.4725E+00
  0.4629E+00
  0.4667E+00
  0.4895E+00
  0.5342E+00
  0.5971E+00
  0.6658E+00
  0.7230E+00
  0.7681E+00
  0.8034E+00
  0.8139E+00
  0.8044E+00
  0.7388E+00
  0.6294E+00
  0.5450E+00
  0.5098E+00
  0.5023E+00
  0.5022E+00
  0.5077E+00
  0.5336E+00
  0.6155E+00
  0.7690E+00
  0.9474E+00
  0.1057E+01
  0.1044E+01
  0.1609E+01
  0.1609E+01
  0.1609E+01
  0.1608E+01
  0.1607E+01
  0.1603E+01
  0.1594E+01
  0.1576E+01
  0.1545E+01
  0.1504E+01
  0.1454E+01
  0.1400E+01
  0.1345E+01
  0.1290E+01
  0.1236E+01
  0.1183E+01
  0.1131E+01
  0.1082E+01
  0.1034E+01
  0.9875E+00
  0.9431E+00
  0.9004E+00
  0.8594E+00
  0.8202E+00
  0.7825E+00
  0.7464E+00
  0.7117E+00
  0.6784E+00
  0.6465E+00
  0.6159E+00
  0.5865E+00
  0.5580E+00
  0.5305E+00
  0.5026E+00
  0.4748E+00
  0.4651E+00
  0.4687E+00
  0.4916E+00
  0.5398E+00
  0.6006E+00
  0.6670E+00
  0.7260E+00
  0.7695E+00
  0.8030E+00
  0.8126E+00
  0.8043E+00
  0.7398E+00
  0.6311E+00
  0.5483E+00
  0.5156E+00
  0.5093E+00
  0.5095E+00
  0.5134E+00
  0.5200E+00
  0.5329E+00
  0.5761E+00
  0.6851E+00
  0.8390E+00
  0.9889E+00
  0.1085E+01
  0.1550E+01
  0.1550E+01
  0.1550E+01
  0.1550E+01
  0.1549E+01
  0.1546E+01
  0.1538E+01
  0.1521E+01
  0.1494E+01
  0.1455E+01
  0.1407E+01
  0.1355E+01
  0.1302E+01
  0.1248E+01
  0.1195E+01
  0.1144E+01
  0.1094E+01
  0.1045E+01
  0.9984E+00
  0.9533E+00
  0.9101E+00
  0.8685E+00
  0.8286E+00
  0.7904E+00
  0.7537E+00
  0.7185E+00
  0.6847E+00
  0.6522E+00
  0.6211E+00
  0.5910E+00
  0.5621E+00
  0.5341E+00
  0.5053E+00
  0.4791E+00
  0.4684E+00
  0.4723E+00
  0.4954E+00
  0.5413E+00
  0.6068E+00
  0.6742E+00
  0.7274E+00
  0.7718E+00
  0.8069E+00
  0.8150E+00
  0.8048E+00
  0.7441E+00
  0.6362E+00
  0.5523E+00
  0.5206E+00
  0.5153E+00
  0.5158E+00
  0.5194E+00
  0.5250E+00
  0.5297E+00
  0.5342E+00
  0.5521E+00
  0.6150E+00
  0.7349E+00
  0.8670E+00
  0.1115E+01
  0.1497E+01
  0.1497E+01
  0.1496E+01
  0.1496E+01
  0.1495E+01
  0.1493E+01
  0.1486E+01
  0.1471E+01
  0.1446E+01
  0.1410E+01
  0.1365E+01
  0.1315E+01
  0.1263E+01
  0.1210E+01
  0.1159E+01
  0.1109E+01
  0.1060E+01
  0.1012E+01
  0.9667E+00
  0.9228E+00
  0.8805E+00
  0.8399E+00
  0.8010E+00
  0.7636E+00
  0.7277E+00
  0.6932E+00
  0.6601E+00
  0.6282E+00
  0.5976E+00
  0.5681E+00
  0.5390E+00
  0.5096E+00
  0.4860E+00
  0.4749E+00
  0.4788E+00
  0.5032E+00
  0.5505E+00
  0.6098E+00
  0.6749E+00
  0.7338E+00
  0.7744E+00
  0.8073E+00
  0.8186E+00
  0.8075E+00
  0.7439E+00
  0.6376E+00
  0.5557E+00
  0.5244E+00
  0.5200E+00
  0.5204E+00
  0.5239E+00
  0.5289E+00
  0.5328E+00
  0.5345E+00
  0.5354E+00
  0.5420E+00
  0.5741E+00
  0.6542E+00
  0.7510E+00
  0.1047E+01
  0.1452E+01
  0.1452E+01
  0.1452E+01
  0.1452E+01
  0.1451E+01
  0.1449E+01
  0.1443E+01
  0.1430E+01
  0.1408E+01
  0.1373E+01
  0.1330E+01
  0.1282E+01
  0.1231E+01
  0.1180E+01
  0.1130E+01
  0.1081E+01
  0.1033E+01
  0.9865E+00
  0.9418E+00
  0.8986E+00
  0.8570E+00
  0.8171E+00
  0.7786E+00
  0.7417E+00
  0.7063E+00
  0.6722E+00
  0.6394E+00
  0.6078E+00
  0.5770E+00
  0.5467E+00
  0.5185E+00
  0.4978E+00
  0.4855E+00
  0.4893E+00
  0.5137E+00
  0.5626E+00
  0.6246E+00
  0.6832E+00
  0.7314E+00
  0.7774E+00
  0.8123E+00
  0.8174E+00
  0.8080E+00
  0.7443E+00
  0.6357E+00
  0.5550E+00
  0.5248E+00
  0.5227E+00
  0.5234E+00
  0.5270E+00
  0.5316E+00
  0.5348E+00
  0.5358E+00
  0.5359E+00
  0.5374E+00
  0.5418E+00
  0.5518E+00
  0.5667E+00
  0.6000E+00
  0.7674E+00
  0.1423E+01
  0.1423E+01
  0.1423E+01
  0.1423E+01
  0.1422E+01
  0.1420E+01
  0.1415E+01
  0.1403E+01
  0.1382E+01
  0.1350E+01
  0.1309E+01
  0.1263E+01
  0.1213E+01
  0.1163E+01
  0.1113E+01
  0.1064E+01
  0.1016E+01
  0.9699E+00
  0.9251E+00
  0.8820E+00
  0.8405E+00
  0.8007E+00
  0.7624E+00
  0.7256E+00
  0.6901E+00
  0.6558E+00
  0.6227E+00
  0.5910E+00
  0.5615E+00
  0.5357E+00
  0.5145E+00
  0.5008E+00
  0.5050E+00
  0.5306E+00
  0.5783E+00
  0.6384E+00
  0.6988E+00
  0.7446E+00
  0.7772E+00
  0.8081E+00
  0.8191E+00
  0.8073E+00
  0.7401E+00
  0.6313E+00
  0.5511E+00
  0.5219E+00
  0.5213E+00
  0.5237E+00
  0.5285E+00
  0.5333E+00
  0.5361E+00
  0.5366E+00
  0.5364E+00
  0.5375E+00
  0.5410E+00
  0.5408E+00
  0.5195E+00
  0.4600E+00
  0.4049E+00
  0.4513E+00
  0.1413E+01
  0.1413E+01
  0.1412E+01
  0.1412E+01
  0.1412E+01
  0.1411E+01
  0.1407E+01
  0.1397E+01
  0.1378E+01
  0.1348E+01
  0.1308E+01
  0.1261E+01
  0.1212E+01
  0.1162E+01
  0.1112E+01
  0.1063E+01
  0.1015E+01
  0.9680E+00
  0.9228E+00
  0.8790E+00
  0.8365E+00
  0.7954E+00
  0.7560E+00
  0.7182E+00
  0.6823E+00
  0.6482E+00
  0.6163E+00
  0.5867E+00
  0.5594E+00
  0.5364E+00
  0.5224E+00
  0.5278E+00
  0.5545E+00
  0.6018E+00
  0.6582E+00
  0.7121E+00
  0.7571E+00
  0.7914E+00
  0.8131E+00
  0.8190E+00
  0.8090E+00
  0.7420E+00
  0.6291E+00
  0.5448E+00
  0.5154E+00
  0.5160E+00
  0.5210E+00
  0.5276E+00
  0.5335E+00
  0.5366E+00
  0.5369E+00
  0.5366E+00
  0.5374E+00
  0.5404E+00
  0.5404E+00
  0.5220E+00
  0.4558E+00
  0.3739E+00
  0.3010E+00
  0.2882E+00
  0.1412E+01
  0.1412E+01
  0.1412E+01
  0.1412E+01
  0.1411E+01
  0.1410E+01
  0.1406E+01
  0.1397E+01
  0.1379E+01
  0.1351E+01
  0.1312E+01
  0.1267E+01
  0.1217E+01
  0.1167E+01
  0.1117E+01
  0.1067E+01
  0.1019E+01
  0.9715E+00
  0.9254E+00
  0.8807E+00
  0.8376E+00
  0.7961E+00
  0.7563E+00
  0.7184E+00
  0.6823E+00
  0.6484E+00
  0.6168E+00
  0.5881E+00
  0.5642E+00
  0.5517E+00
  0.5587E+00
  0.5861E+00
  0.6313E+00
  0.6842E+00
  0.7323E+00
  0.7697E+00
  0.8004E+00
  0.8256E+00
  0.8287E+00
  0.8141E+00
  0.7475E+00
  0.6335E+00
  0.5425E+00
  0.5084E+00
  0.5089E+00
  0.5156E+00
  0.5243E+00
  0.5319E+00
  0.5363E+00
  0.5369E+00
  0.5367E+00
  0.5372E+00
  0.5400E+00
  0.5397E+00
  0.5214E+00
  0.4571E+00
  0.3771E+00
  0.3084E+00
  0.2561E+00
  0.2329E+00
  0.1414E+01
  0.1414E+01
  0.1414E+01
  0.1414E+01
  0.1413E+01
  0.1412E+01
  0.1409E+01
  0.1401E+01
  0.1385E+01
  0.1358E+01
  0.1321E+01
  0.1276E+01
  0.1227E+01
  0.1177E+01
  0.1126E+01
  0.1076E+01
  0.1027E+01
  0.9785E+00
  0.9316E+00
  0.8862E+00
  0.8424E+00
  0.8003E+00
  0.7601E+00
  0.7220E+00
  0.6859E+00
  0.6524E+00
  0.6225E+00
  0.5993E+00
  0.5899E+00
  0.5980E+00
  0.6251E+00
  0.6666E+00
  0.7135E+00
  0.7554E+00
  0.7876E+00
  0.8120E+00
  0.8318E+00
  0.8380E+00
  0.8254E+00
  0.7616E+00
  0.6438E+00
  0.5447E+00
  0.5026E+00
  0.5020E+00
  0.5087E+00
  0.5193E+00
  0.5289E+00
  0.5350E+00
  0.5366E+00
  0.5366E+00
  0.5372E+00
  0.5398E+00
  0.5393E+00
  0.5205E+00
  0.4560E+00
  0.3770E+00
  0.3093E+00
  0.2595E+00
  0.2264E+00
  0.2105E+00
  0.1421E+01
  0.1421E+01
  0.1421E+01
  0.1421E+01
  0.1421E+01
  0.1420E+01
  0.1417E+01
  0.1410E+01
  0.1396E+01
  0.1370E+01
  0.1335E+01
  0.1290E+01
  0.1241E+01
  0.1190E+01
  0.1139E+01
  0.1087E+01
  0.1037E+01
  0.9873E+00
  0.9394E+00
  0.8933E+00
  0.8491E+00
  0.8069E+00
  0.7670E+00
  0.7296E+00
  0.6952E+00
  0.6655E+00
  0.6436E+00
  0.6363E+00
  0.6446E+00
  0.6695E+00
  0.7063E+00
  0.7463E+00
  0.7805E+00
  0.8068E+00
  0.8270E+00
  0.8421E+00
  0.8463E+00
  0.8352E+00
  0.7800E+00
  0.6619E+00
  0.5527E+00
  0.4996E+00
  0.4957E+00
  0.5015E+00
  0.5133E+00
  0.5249E+00
  0.5327E+00
  0.5357E+00
  0.5364E+00
  0.5375E+00
  0.5401E+00
  0.5394E+00
  0.5198E+00
  0.4550E+00
  0.3762E+00
  0.3086E+00
  0.2593E+00
  0.2267E+00
  0.2090E+00
  0.2023E+00
  0.1431E+01
  0.1431E+01
  0.1431E+01
  0.1431E+01
  0.1431E+01
  0.1430E+01
  0.1428E+01
  0.1422E+01
  0.1408E+01
  0.1385E+01
  0.1350E+01
  0.1306E+01
  0.1256E+01
  0.1204E+01
  0.1151E+01
  0.1099E+01
  0.1047E+01
  0.9968E+00
  0.9481E+00
  0.9014E+00
  0.8572E+00
  0.8158E+00
  0.7775E+00
  0.7428E+00
  0.7136E+00
  0.6932E+00
  0.6870E+00
  0.6951E+00
  0.7167E+00
  0.7474E+00
  0.7798E+00
  0.8070E+00
  0.8278E+00
  0.8439E+00
  0.8549E+00
  0.8552E+00
  0.8445E+00
  0.7956E+00
  0.6825E+00
  0.5670E+00
  0.5004E+00
  0.4908E+00
  0.4950E+00
  0.5068E+00
  0.5200E+00
  0.5297E+00
  0.5343E+00
  0.5358E+00
  0.5376E+00
  0.5407E+00
  0.5399E+00
  0.5206E+00
  0.4550E+00
  0.3754E+00
  0.3081E+00
  0.2590E+00
  0.2265E+00
  0.2089E+00
  0.2020E+00
  0.2003E+00
  0.1442E+01
  0.1442E+01
  0.1442E+01
  0.1442E+01