# vtk DataFile Version 3.0
vtk output
ASCII
DATASET RECTILINEAR_GRID
DIMENSIONS          61          61 1
X_COORDINATES    61 double
  0.0000E+00
  0.1667E+00
  0.3333E+00
  0.5000E+00
  0.6667E+00
  0.8333E+00
  0.1000E+01
  0.1167E+01
  0.1333E+01
  0.1500E+01
  0.1667E+01
  0.1833E+01
  0.2000E+01
  0.2167E+01
  0.2333E+01
  0.2500E+01
  0.2667E+01
  0.2833E+01
  0.3000E+01
  0.3167E+01
  0.3333E+01
  0.3500E+01
  0.3667E+01
  0.3833E+01
  0.4000E+01
  0.4167E+01
  0.4333E+01
  0.4500E+01
  0.4667E+01
  0.4833E+01
  0.5000E+01
  0.5167E+01
  0.5333E+01
  0.5500E+01
  0.5667E+01
  0.5833E+01
  0.6000E+01
  0.6167E+01
  0.6333E+01
  0.6500E+01
  0.6667E+01
  0.6833E+01
  0.7000E+01
  0.7167E+01
  0.7333E+01
  0.7500E+01
  0.7667E+01
  0.7833E+01
  0.8000E+01
  0.8167E+01
  0.8333E+01
  0.8500E+01
  0.8667E+01
  0.8833E+01
  0.9000E+01
  0.9167E+01
  0.9333E+01
  0.9500E+01
  0.9667E+01
  0.9833E+01
  0.1000E+02
Y_COORDINATES    61 double
  0.0000E+00
  0.1667E+00
  0.3333E+00
  0.5000E+00
  0.6667E+00
  0.8333E+00
  0.1000E+01
  0.1167E+01
  0.1333E+01
  0.1500E+01
  0.1667E+01
  0.1833E+01
  0.2000E+01
  0.2167E+01
  0.2333E+01
  0.2500E+01
  0.2667E+01
  0.2833E+01
  0.3000E+01
  0.3167E+01
  0.3333E+01
  0.3500E+01
  0.3667E+01
  0.3833E+01
  0.4000E+01
  0.4167E+01
  0.4333E+01
  0.4500E+01
  0.4667E+01
  0.4833E+01
  0.5000E+01
  0.5167E+01
  0.5333E+01
  0.5500E+01
  0.5667E+01
  0.5833E+01
  0.6000E+01
  0.6167E+01
  0.6333E+01
  0.6500E+01
  0.6667E+01
  0.6833E+01
  0.7000E+01
  0.7167E+01
  0.7333E+01
  0.7500E+01
  0.7667E+01
  0.7833E+01
  0.8000E+01
  0.8167E+01
  0.8333E+01
  0.8500E+01
  0.8667E+01
  0.8833E+01
  0.9000E+01
  0.9167E+01
  0.9333E+01
  0.9500E+01
  0.9667E+01
  0.9833E+01
  0.1000E+02
Z_COORDINATES 1 double
0
CELL_DATA                 3600
FIELD FieldData 4
density 1                 3600 double
  0.2662E+01
  0.2662E+01
  0.2662E+01
  0.2661E+01
  0.2660E+01
  0.2657E+01
  0.2647E+01
  0.2626E+01
  0.2587E+01
  0.2528E+01
  0.2454E+01
  0.2372E+01
  0.2286E+01
  0.2201E+01
  0.2117E+01
  0.2035E+01
  0.1955E+01
  0.1879E+01
  0.1805E+01
  0.1734E+01
  0.1666E+01
  0.1601E+01
  0.1539E+01
  0.1479E+01
  0.1423E+01
  0.1368E+01
  0.1316E+01
  0.1266E+01
  0.1218E+01
  0.1172E+01
  0.1128E+01
  0.1086E+01
  0.1046E+01
  0.1007E+01
  0.9699E+00
  0.9343E+00
  0.9002E+00
  0.8677E+00
  0.8368E+00
  0.8074E+00
  0.7796E+00
  0.7533E+00
  0.7285E+00
  0.7057E+00
  0.6860E+00
  0.6706E+00
  0.6647E+00
  0.6654E+00
  0.6720E+00
  0.6852E+00
  0.7003E+00
  0.7143E+00
  0.7243E+00
  0.7345E+00
  0.7771E+00
  0.9906E+00
  0.1564E+01
  0.1825E+01
  0.1595E+01
  0.1470E+01
  0.2660E+01
  0.2660E+01
  0.2660E+01
  0.2660E+01
  0.2659E+01
  0.2655E+01
  0.2646E+01
  0.2625E+01
  0.2585E+01
  0.2527E+01
  0.2453E+01
  0.2371E+01
  0.2285E+01
  0.2200E+01
  0.2116E+01
  0.2034E+01
  0.1954E+01
  0.1878E+01
  0.1804E+01
  0.1733E+01
  0.1665E+01
  0.1600E+01
  0.1538E+01
  0.1479E+01
  0.1422E+01
  0.1367E+01
  0.1315E+01
  0.1265E+01
  0.1217E+01
  0.1171E+01
  0.1128E+01
  0.1085E+01
  0.1045E+01
  0.1006E+01
  0.9690E+00
  0.9334E+00
  0.8993E+00
  0.8668E+00
  0.8359E+00
  0.8065E+00
  0.7787E+00
  0.7524E+00
  0.7275E+00
  0.7046E+00
  0.6850E+00
  0.6695E+00
  0.6634E+00
  0.6640E+00
  0.6702E+00
  0.6832E+00
  0.6986E+00
  0.7132E+00
  0.7244E+00
  0.7359E+00
  0.7805E+00
  0.9979E+00
  0.1571E+01
  0.1824E+01
  0.1589E+01
  0.1480E+01
  0.2657E+01
  0.2657E+01
  0.2657E+01
  0.2657E+01
  0.2656E+01
  0.2652E+01
  0.2643E+01
  0.2622E+01
  0.2583E+01
  0.2524E+01
  0.2451E+01
  0.2368E+01
  0.2283E+01
  0.2198E+01
  0.2114E+01
  0.2032E+01
  0.1953E+01
  0.1876E+01
  0.1802E+01
  0.1731E+01
  0.1663E+01
  0.1598E+01
  0.1536E+01
  0.1477E+01
  0.1420E+01
  0.1365E+01
  0.1313E+01
  0.1263E+01
  0.1216E+01
  0.1170E+01
  0.1126E+01
  0.1084E+01
  0.1043E+01
  0.1004E+01
  0.9672E+00
  0.9316E+00
  0.8975E+00
  0.8650E+00
  0.8340E+00
  0.8047E+00
  0.7768E+00
  0.7505E+00
  0.7256E+00
  0.7026E+00
  0.6828E+00
  0.6672E+00
  0.6606E+00
  0.6610E+00
  0.6667E+00
  0.6795E+00
  0.6953E+00
  0.7110E+00
  0.7247E+00
  0.7392E+00
  0.7886E+00
  0.1016E+01
  0.1583E+01
  0.1815E+01
  0.1576E+01
  0.1478E+01
  0.2652E+01
  0.2652E+01
  0.2652E+01
  0.2652E+01
  0.2651E+01
  0.2648E+01
  0.2638E+01
  0.2618E+01
  0.2579E+01
  0.2521E+01
  0.2447E+01
  0.2365E+01
  0.2280E+01
  0.2195E+01
  0.2111E+01
  0.2029E+01
  0.1950E+01
  0.1873E+01
  0.1799E+01
  0.1728E+01
  0.1661E+01
  0.1596E+01
  0.1533E+01
  0.1474E+01
  0.1417E+01
  0.1363E+01
  0.1311E+01
  0.1261E+01
  0.1213E+01
  0.1167E+01
  0.1123E+01
  0.1081E+01
  0.1041E+01
  0.1002E+01
  0.9645E+00
  0.9289E+00
  0.8948E+00
  0.8622E+00
  0.8313E+00
  0.8018E+00
  0.7739E+00
  0.7475E+00
  0.7226E+00
  0.6995E+00
  0.6795E+00
  0.6637E+00
  0.6561E+00
  0.6564E+00
  0.6615E+00
  0.6740E+00
  0.6904E+00
  0.7077E+00
  0.7257E+00
  0.7447E+00
  0.8012E+00
  0.1040E+01
  0.1599E+01
  0.1792E+01
  0.1551E+01
  0.1460E+01
  0.2646E+01
  0.2646E+01
  0.2646E+01
  0.2646E+01
  0.2645E+01
  0.2641E+01
  0.2632E+01
  0.2612E+01
  0.2574E+01
  0.2516E+01
  0.2443E+01
  0.2361E+01
  0.2276E+01
  0.2191E+01
  0.2107E+01
  0.2025E+01
  0.1946E+01
  0.1869E+01
  0.1795E+01
  0.1725E+01
  0.1657E+01
  0.1592E+01
  0.1530E+01
  0.1470E+01
  0.1413E+01
  0.1359E+01
  0.1307E+01
  0.1257E+01
  0.1209E+01
  0.1163E+01
  0.1119E+01
  0.1077E+01
  0.1037E+01
  0.9980E+00
  0.9608E+00
  0.9251E+00
  0.8910E+00
  0.8584E+00
  0.8274E+00
  0.7979E+00
  0.7699E+00
  0.7434E+00
  0.7184E+00
  0.6951E+00
  0.6749E+00
  0.6588E+00
  0.6501E+00
  0.6498E+00
  0.6544E+00
  0.6668E+00
  0.6839E+00
  0.7038E+00
  0.7275E+00
  0.7530E+00
  0.8197E+00
  0.1073E+01
  0.1619E+01
  0.1760E+01
  0.1524E+01
  0.1446E+01
  0.2638E+01
  0.2638E+01
  0.2637E+01
  0.2637E+01
  0.2636E+01
  0.2633E+01
  0.2624E+01
  0.2604E+01
  0.2567E+01
  0.2510E+01
  0.2437E+01
  0.2355E+01
  0.2270E+01
  0.2185E+01
  0.2101E+01
  0.2020E+01
  0.1940E+01
  0.1864E+01
  0.1790E+01
  0.1719E+01
  0.1652E+01
  0.1587E+01
  0.1525E+01
  0.1465E+01
  0.1408E+01
  0.1354E+01
  0.1302E+01
  0.1252E+01
  0.1204E+01
  0.1158E+01
  0.1115E+01
  0.1072E+01
  0.1032E+01
  0.9931E+00
  0.9559E+00
  0.9201E+00
  0.8860E+00
  0.8533E+00
  0.8222E+00
  0.7926E+00
  0.7646E+00
  0.7379E+00
  0.7127E+00
  0.6893E+00
  0.6687E+00
  0.6522E+00
  0.6420E+00
  0.6410E+00
  0.6453E+00
  0.6577E+00
  0.6758E+00
  0.6998E+00
  0.7308E+00
  0.7662E+00
  0.8448E+00
  0.1112E+01
  0.1635E+01
  0.1717E+01
  0.1495E+01
  0.1441E+01
  0.2627E+01
  0.2627E+01
  0.2627E+01
  0.2627E+01
  0.2626E+01
  0.2623E+01
  0.2614E+01
  0.2595E+01
  0.2558E+01
  0.2501E+01
  0.2429E+01
  0.2348E+01
  0.2263E+01
  0.2178E+01
  0.2095E+01
  0.2013E+01
  0.1934E+01
  0.1857E+01
  0.1784E+01
  0.1713E+01
  0.1645E+01
  0.1580E+01
  0.1518E+01
  0.1459E+01
  0.1402E+01
  0.1348E+01
  0.1296E+01
  0.1246E+01
  0.1198E+01
  0.1152E+01
  0.1108E+01
  0.1066E+01
  0.1026E+01
  0.9868E+00
  0.9495E+00
  0.9138E+00
  0.8795E+00
  0.8468E+00
  0.8155E+00
  0.7858E+00
  0.7575E+00
  0.7307E+00
  0.7052E+00
  0.6815E+00
  0.6604E+00
  0.6432E+00
  0.6314E+00
  0.6298E+00
  0.6336E+00
  0.6461E+00
  0.6663E+00
  0.6971E+00
  0.7398E+00
  0.7885E+00
  0.8766E+00
  0.1150E+01
  0.1636E+01
  0.1666E+01
  0.1458E+01
  0.1429E+01
  0.2614E+01
  0.2614E+01
  0.2614E+01
  0.2614E+01
  0.2613E+01
  0.2610E+01
  0.2602E+01
  0.2583E+01
  0.2547E+01
  0.2491E+01
  0.2420E+01
  0.2339E+01
  0.2255E+01
  0.2170E+01
  0.2086E+01
  0.2005E+01
  0.1926E+01
  0.1849E+01
  0.1776E+01
  0.1705E+01
  0.1637E+01
  0.1572E+01
  0.1510E+01
  0.1451E+01
  0.1394E+01
  0.1340E+01
  0.1288E+01
  0.1238E+01
  0.1190E+01
  0.1145E+01
  0.1101E+01
  0.1058E+01
  0.1018E+01
  0.9789E+00
  0.9415E+00
  0.9056E+00
  0.8712E+00
  0.8383E+00
  0.8069E+00
  0.7769E+00
  0.7483E+00
  0.7211E+00
  0.6953E+00
  0.6711E+00
  0.6493E+00
  0.6312E+00
  0.6177E+00
  0.6156E+00
  0.6191E+00
  0.6322E+00
  0.6574E+00
  0.6991E+00
  0.7551E+00
  0.8129E+00
  0.9062E+00
  0.1179E+01
  0.1614E+01
  0.1605E+01
  0.1409E+01
  0.1400E+01
  0.2598E+01
  0.2598E+01
  0.2598E+01
  0.2598E+01
  0.2597E+01
  0.2595E+01
  0.2587E+01
  0.2568E+01
  0.2534E+01
  0.2479E+01
  0.2409E+01
  0.2328E+01
  0.2244E+01
  0.2159E+01
  0.2076E+01
  0.1994E+01
  0.1915E+01
  0.1839E+01
  0.1766E+01
  0.1695E+01
  0.1628E+01
  0.1563E+01
  0.1501E+01
  0.1442E+01
  0.1385E+01
  0.1331E+01
  0.1279E+01
  0.1229E+01
  0.1181E+01
  0.1135E+01
  0.1091E+01
  0.1049E+01
  0.1008E+01
  0.9688E+00
  0.9312E+00
  0.8951E+00
  0.8604E+00
  0.8272E+00
  0.7955E+00
  0.7651E+00
  0.7361E+00
  0.7085E+00
  0.6822E+00
  0.6573E+00
  0.6347E+00
  0.6154E+00
  0.6005E+00
  0.5982E+00
  0.6020E+00
  0.6178E+00
  0.6533E+00
  0.7094E+00
  0.7777E+00
  0.8398E+00
  0.9306E+00
  0.1192E+01
  0.1568E+01
  0.1532E+01
  0.1361E+01
  0.1366E+01
  0.2580E+01
  0.2580E+01
  0.2580E+01
  0.2580E+01
  0.2579E+01
  0.2576E+01
  0.2569E+01
  0.2551E+01
  0.2518E+01
  0.2464E+01
  0.2395E+01
  0.2315E+01
  0.2231E+01
  0.2147E+01
  0.2063E+01
  0.1982E+01
  0.1903E+01
  0.1827E+01
  0.1754E+01
  0.1683E+01
  0.1616E+01
  0.1551E+01
  0.1489E+01
  0.1430E+01
  0.1373E+01
  0.1319E+01
  0.1267E+01
  0.1217E+01
  0.1169E+01
  0.1123E+01
  0.1079E+01
  0.1036E+01
  0.9952E+00
  0.9558E+00
  0.9179E+00
  0.8815E+00
  0.8464E+00
  0.8128E+00
  0.7806E+00
  0.7498E+00
  0.7203E+00
  0.6921E+00
  0.6652E+00
  0.6397E+00
  0.6163E+00
  0.5956E+00
  0.5800E+00
  0.5782E+00
  0.5839E+00
  0.6074E+00
  0.6586E+00
  0.7311E+00
  0.8074E+00
  0.8647E+00
  0.9462E+00
  0.1190E+01
  0.1501E+01
  0.1457E+01
  0.1320E+01
  0.1337E+01
  0.2558E+01
  0.2558E+01
  0.2558E+01
  0.2558E+01
  0.2557E+01
  0.2554E+01
  0.2548E+01
  0.2531E+01
  0.2498E+01
  0.2447E+01
  0.2378E+01
  0.2299E+01
  0.2215E+01
  0.2131E+01
  0.2048E+01
  0.1967E+01
  0.1888E+01
  0.1812E+01
  0.1739E+01
  0.1668E+01
  0.1601E+01
  0.1536E+01
  0.1474E+01
  0.1415E+01
  0.1358E+01
  0.1304E+01
  0.1252E+01
  0.1202E+01
  0.1153E+01
  0.1107E+01
  0.1063E+01
  0.1020E+01
  0.9787E+00
  0.9390E+00
  0.9008E+00
  0.8639E+00
  0.8284E+00
  0.7944E+00
  0.7617E+00
  0.7304E+00
  0.7005E+00
  0.6718E+00
  0.6443E+00
  0.6182E+00
  0.5940E+00
  0.5716E+00
  0.5576E+00
  0.5575E+00
  0.5686E+00
  0.6088E+00
  0.6787E+00
  0.7606E+00
  0.8352E+00
  0.8809E+00
  0.9497E+00
  0.1168E+01
  0.1413E+01
  0.1381E+01
  0.1282E+01
  0.1309E+01
  0.2531E+01
  0.2531E+01
  0.2531E+01
  0.2531E+01
  0.2530E+01
  0.2528E+01
  0.2522E+01
  0.2506E+01
  0.2475E+01
  0.2425E+01
  0.2357E+01
  0.2279E+01
  0.2196E+01
  0.2112E+01
  0.2029E+01
  0.1948E+01
  0.1870E+01
  0.1794E+01
  0.1720E+01
  0.1650E+01
  0.1583E+01
  0.1518E+01
  0.1456E+01
  0.1397E+01
  0.1340E+01
  0.1285E+01
  0.1233E+01
  0.1182E+01
  0.1134E+01
  0.1087E+01
  0.1043E+01
  0.9995E+00
  0.9580E+00
  0.9179E+00
  0.8792E+00
  0.8420E+00
  0.8061E+00
  0.7717E+00
  0.7386E+00
  0.7070E+00
  0.6767E+00
  0.6477E+00
  0.6199E+00
  0.5932E+00
  0.5683E+00
  0.5442E+00
  0.5361E+00
  0.5393E+00
  0.5657E+00
  0.6274E+00
  0.7108E+00
  0.7934E+00
  0.8590E+00
  0.8890E+00
  0.9408E+00
  0.1123E+01
  0.1309E+01
  0.1308E+01
  0.1246E+01
  0.1283E+01
  0.2499E+01
  0.2499E+01
  0.2498E+01
  0.2498E+01
  0.2498E+01
  0.2496E+01
  0.2490E+01
  0.2475E+01
  0.2446E+01
  0.2397E+01
  0.2331E+01
  0.2254E+01
  0.2172E+01
  0.2088E+01
  0.2006E+01
  0.1925E+01
  0.1847E+01
  0.1771E+01
  0.1697E+01
  0.1627E+01
  0.1560E+01
  0.1495E+01
  0.1433E+01
  0.1373E+01
  0.1316E+01
  0.1261E+01
  0.1209E+01
  0.1158E+01
  0.1110E+01
  0.1063E+01
  0.1018E+01
  0.9743E+00
  0.9324E+00
  0.8921E+00
  0.8531E+00
  0.8156E+00
  0.7796E+00
  0.7450E+00
  0.7118E+00
  0.6800E+00
  0.6496E+00
  0.6206E+00
  0.5926E+00
  0.5657E+00
  0.5393E+00
  0.5187E+00
  0.5170E+00
  0.5332E+00
  0.5831E+00
  0.6621E+00
  0.7500E+00
  0.8237E+00
  0.8740E+00
  0.8891E+00
  0.9214E+00
  0.1055E+01
  0.1193E+01
  0.1242E+01
  0.1214E+01
  0.1258E+01
  0.2459E+01
  0.2459E+01
  0.2459E+01
  0.2459E+01
  0.2458E+01
  0.2456E+01
  0.2451E+01
  0.2437E+01
  0.2409E+01
  0.2363E+01
  0.2299E+01
  0.2223E+01
  0.2142E+01
  0.2059E+01
  0.1976E+01
  0.1896E+01
  0.1818E+01
  0.1742E+01
  0.1669E+01
  0.1598E+01
  0.1531E+01
  0.1466E+01
  0.1404E+01
  0.1344E+01
  0.1287E+01
  0.1232E+01
  0.1180E+01
  0.1129E+01
  0.1080E+01
  0.1033E+01
  0.9879E+00
  0.9444E+00
  0.9024E+00
  0.8620E+00
  0.8230E+00
  0.7855E+00
  0.7496E+00
  0.7151E+00
  0.6821E+00
  0.6505E+00
  0.6204E+00
  0.5916E+00
  0.5636E+00
  0.5362E+00
  0.5091E+00
  0.5007E+00
  0.5096E+00
  0.5484E+00
  0.6192E+00
  0.7081E+00
  0.7878E+00
  0.8487E+00
  0.8782E+00
  0.8792E+00
  0.8870E+00
  0.9642E+00
  0.1077E+01
  0.1185E+01
  0.1187E+01
  0.1227E+01
  0.2410E+01
  0.2410E+01
  0.2410E+01
  0.2410E+01
  0.2410E+01
  0.2408E+01
  0.2403E+01
  0.2391E+01
  0.2365E+01
  0.2321E+01
  0.2259E+01
  0.2185E+01
  0.2104E+01
  0.2022E+01
  0.1940E+01
  0.1860E+01
  0.1782E+01
  0.1706E+01
  0.1634E+01
  0.1563E+01
  0.1496E+01
  0.1431E+01
  0.1369E+01
  0.1310E+01
  0.1253E+01
  0.1198E+01
  0.1145E+01
  0.1094E+01
  0.1046E+01
  0.9989E+00
  0.9538E+00
  0.9104E+00
  0.8687E+00
  0.8285E+00
  0.7899E+00
  0.7528E+00
  0.7172E+00
  0.6832E+00
  0.6507E+00
  0.6197E+00
  0.5902E+00
  0.5616E+00
  0.5338E+00
  0.5043E+00
  0.4883E+00
  0.4934E+00
  0.5230E+00
  0.5847E+00
  0.6697E+00
  0.7533E+00
  0.8205E+00
  0.8646E+00
  0.8725E+00
  0.8609E+00
  0.8224E+00
  0.8589E+00
  0.9692E+00
  0.1136E+01
  0.1167E+01
  0.1193E+01
  0.2352E+01
  0.2352E+01
  0.2352E+01
  0.2352E+01
  0.2352E+01
  0.2350E+01
  0.2346E+01
  0.2335E+01
  0.2311E+01
  0.2270E+01
  0.2210E+01
  0.2138E+01
  0.2058E+01
  0.1977E+01
  0.1896E+01
  0.1817E+01
  0.1739E+01
  0.1664E+01
  0.1592E+01
  0.1522E+01
  0.1455E+01
  0.1391E+01
  0.1329E+01
  0.1270E+01
  0.1213E+01
  0.1158E+01
  0.1106E+01
  0.1056E+01
  0.1007E+01
  0.9611E+00
  0.9165E+00
  0.8736E+00
  0.8325E+00
  0.7929E+00
  0.7549E+00
  0.7185E+00
  0.6837E+00
  0.6505E+00
  0.6189E+00
  0.5887E+00
  0.5596E+00
  0.5316E+00
  0.5015E+00
  0.4806E+00
  0.4828E+00
  0.5053E+00
  0.5588E+00
  0.6373E+00
  0.7208E+00
  0.7923E+00
  0.8462E+00
  0.8644E+00
  0.8603E+00
  0.8166E+00
  0.7298E+00
  0.7494E+00
  0.8743E+00
  0.1092E+01
  0.1163E+01
  0.1167E+01
  0.2285E+01
  0.2285E+01
  0.2285E+01
  0.2285E+01
  0.2284E+01
  0.2283E+01
  0.2280E+01
  0.2270E+01
  0.2248E+01
  0.2209E+01
  0.2153E+01
  0.2083E+01
  0.2005E+01
  0.1925E+01
  0.1845E+01
  0.1767E+01
  0.1690E+01
  0.1616E+01
  0.1544E+01
  0.1475E+01
  0.1409E+01
  0.1345E+01
  0.1284E+01
  0.1225E+01
  0.1169E+01
  0.1115E+01
  0.1064E+01
  0.1014E+01
  0.9668E+00
  0.9212E+00
  0.8774E+00
  0.8354E+00
  0.7952E+00
  0.7565E+00
  0.7195E+00
  0.6841E+00
  0.6503E+00
  0.6181E+00
  0.5875E+00
  0.5580E+00
  0.5297E+00
  0.4995E+00
  0.4762E+00
  0.4765E+00
  0.4945E+00
  0.5425E+00
  0.6155E+00
  0.6960E+00
  0.7685E+00
  0.8269E+00
  0.8544E+00
  0.8537E+00
  0.8245E+00
  0.7308E+00
  0.6298E+00
  0.6509E+00
  0.7948E+00
  0.1049E+01
  0.1167E+01
  0.1155E+01
  0.2209E+01
  0.2209E+01
  0.2209E+01
  0.2209E+01
  0.2209E+01
  0.2208E+01
  0.2205E+01
  0.2196E+01
  0.2177E+01
  0.2141E+01
  0.2088E+01
  0.2020E+01
  0.1945E+01
  0.1867E+01
  0.1788E+01
  0.1711E+01
  0.1636E+01
  0.1563E+01
  0.1492E+01
  0.1424E+01
  0.1359E+01
  0.1296E+01
  0.1236E+01
  0.1178E+01
  0.1123E+01
  0.1071E+01
  0.1020E+01
  0.9715E+00
  0.9251E+00
  0.8806E+00
  0.8379E+00
  0.7971E+00
  0.7579E+00
  0.7205E+00
  0.6846E+00
  0.6503E+00
  0.6177E+00
  0.5866E+00
  0.5568E+00
  0.5283E+00
  0.4980E+00
  0.4733E+00
  0.4723E+00
  0.4870E+00
  0.5283E+00
  0.5952E+00
  0.6752E+00
  0.7512E+00
  0.8141E+00
  0.8457E+00
  0.8466E+00
  0.8214E+00
  0.7340E+00
  0.6259E+00
  0.5475E+00
  0.5761E+00
  0.7287E+00
  0.9945E+00
  0.1171E+01
  0.1156E+01
  0.2128E+01
  0.2128E+01
  0.2128E+01
  0.2128E+01
  0.2128E+01
  0.2127E+01
  0.2124E+01
  0.2117E+01
  0.2100E+01
  0.2067E+01
  0.2017E+01
  0.1953E+01
  0.1880E+01
  0.1804E+01
  0.1727E+01
  0.1651E+01
  0.1578E+01
  0.1506E+01
  0.1437E+01
  0.1371E+01
  0.1307E+01
  0.1245E+01
  0.1187E+01
  0.1130E+01
  0.1077E+01
  0.1025E+01
  0.9759E+00
  0.9287E+00
  0.8836E+00
  0.8404E+00
  0.7991E+00
  0.7595E+00
  0.7216E+00
  0.6854E+00
  0.6508E+00
  0.6178E+00
  0.5864E+00
  0.5561E+00
  0.5272E+00
  0.4974E+00
  0.4723E+00
  0.4702E+00
  0.4832E+00
  0.5232E+00
  0.5824E+00
  0.6527E+00
  0.7248E+00
  0.7906E+00
  0.8329E+00
  0.8372E+00
  0.8134E+00
  0.7254E+00
  0.6204E+00
  0.5361E+00
  0.5005E+00
  0.5314E+00
  0.6730E+00
  0.9244E+00
  0.1151E+01
  0.1164E+01
  0.2044E+01
  0.2044E+01
  0.2044E+01
  0.2044E+01
  0.2044E+01
  0.2043E+01
  0.2041E+01
  0.2034E+01
  0.2019E+01
  0.1990E+01
  0.1943E+01
  0.1883E+01
  0.1813E+01
  0.1739E+01
  0.1664E+01
  0.1590E+01
  0.1519E+01
  0.1449E+01
  0.1381E+01
  0.1316E+01
  0.1254E+01
  0.1194E+01
  0.1137E+01
  0.1083E+01
  0.1030E+01
  0.9804E+00
  0.9326E+00
  0.8869E+00
  0.8432E+00
  0.8014E+00
  0.7615E+00
  0.7233E+00
  0.6867E+00
  0.6518E+00
  0.6185E+00
  0.5867E+00
  0.5561E+00
  0.5269E+00
  0.4965E+00
  0.4719E+00
  0.4696E+00
  0.4802E+00
  0.5181E+00
  0.5815E+00
  0.6536E+00
  0.7198E+00
  0.7791E+00
  0.8180E+00
  0.8250E+00
  0.8004E+00
  0.7117E+00
  0.6078E+00
  0.5285E+00
  0.4897E+00
  0.4882E+00
  0.5135E+00
  0.6264E+00
  0.8434E+00
  0.1086E+01
  0.1179E+01
  0.1959E+01
  0.1959E+01
  0.1959E+01
  0.1959E+01
  0.1959E+01
  0.1958E+01
  0.1956E+01
  0.1951E+01
  0.1938E+01
  0.1911E+01
  0.1869E+01
  0.1812E+01
  0.1745E+01
  0.1673E+01
  0.1601E+01
  0.1529E+01
  0.1460E+01
  0.1392E+01
  0.1326E+01
  0.1263E+01
  0.1203E+01
  0.1145E+01
  0.1089E+01
  0.1036E+01
  0.9855E+00
  0.9371E+00
  0.8909E+00
  0.8467E+00
  0.8045E+00
  0.7641E+00
  0.7255E+00
  0.6887E+00
  0.6534E+00
  0.6198E+00
  0.5877E+00
  0.5568E+00
  0.5273E+00
  0.4961E+00
  0.4710E+00
  0.4691E+00
  0.4801E+00
  0.5130E+00
  0.5679E+00
  0.6413E+00
  0.7180E+00
  0.7871E+00
  0.8216E+00
  0.8212E+00
  0.7908E+00
  0.6978E+00
  0.5938E+00
  0.5193E+00
  0.4886E+00
  0.4862E+00
  0.4901E+00
  0.5118E+00
  0.5882E+00
  0.7589E+00
  0.9832E+00
  0.1203E+01
  0.1875E+01
  0.1875E+01
  0.1875E+01
  0.1875E+01
  0.1875E+01
  0.1875E+01
  0.1873E+01
  0.1869E+01
  0.1858E+01
  0.1834E+01
  0.1795E+01
  0.1742E+01
  0.1678E+01
  0.1609E+01
  0.1539E+01
  0.1470E+01
  0.1402E+01
  0.1337E+01
  0.1273E+01
  0.1212E+01
  0.1153E+01
  0.1097E+01
  0.1043E+01
  0.9917E+00
  0.9426E+00
  0.8958E+00
  0.8511E+00
  0.8083E+00
  0.7675E+00
  0.7285E+00
  0.6913E+00
  0.6557E+00
  0.6218E+00
  0.5894E+00
  0.5581E+00
  0.5282E+00
  0.4968E+00
  0.4708E+00
  0.4684E+00
  0.4795E+00
  0.5146E+00
  0.5677E+00
  0.6303E+00
  0.6969E+00
  0.7650E+00
  0.8188E+00
  0.8221E+00
  0.7917E+00
  0.6918E+00
  0.5845E+00
  0.5140E+00
  0.4906E+00
  0.4881E+00
  0.4912E+00
  0.5032E+00
  0.5192E+00
  0.5611E+00
  0.6776E+00
  0.8558E+00
  0.1216E+01
  0.1795E+01
  0.1795E+01
  0.1795E+01
  0.1795E+01
  0.1795E+01
  0.1795E+01
  0.1793E+01
  0.1790E+01
  0.1780E+01
  0.1759E+01
  0.1724E+01
  0.1674E+01
  0.1613E+01
  0.1548E+01
  0.1480E+01
  0.1413E+01
  0.1347E+01
  0.1284E+01
  0.1222E+01
  0.1162E+01
  0.1106E+01
  0.1051E+01
  0.9990E+00
  0.9492E+00
  0.9018E+00
  0.8564E+00
  0.8132E+00
  0.7719E+00
  0.7324E+00
  0.6948E+00
  0.6588E+00
  0.6245E+00
  0.5917E+00
  0.5600E+00
  0.5297E+00
  0.4979E+00
  0.4721E+00
  0.4694E+00
  0.4792E+00
  0.5138E+00
  0.5700E+00
  0.6351E+00
  0.6972E+00
  0.7557E+00
  0.7998E+00
  0.8132E+00
  0.7871E+00
  0.6889E+00
  0.5825E+00
  0.5148E+00
  0.4950E+00
  0.4922E+00
  0.4959E+00
  0.5069E+00
  0.5182E+00
  0.5285E+00
  0.5487E+00
  0.6108E+00
  0.7263E+00
  0.1152E+01
  0.1718E+01
  0.1718E+01
  0.1718E+01
  0.1718E+01
  0.1718E+01
  0.1718E+01
  0.1717E+01
  0.1714E+01
  0.1706E+01
  0.1688E+01
  0.1656E+01
  0.1609E+01
  0.1552E+01
  0.1489E+01
  0.1423E+01
  0.1359E+01
  0.1295E+01
  0.1233E+01
  0.1173E+01
  0.1116E+01
  0.1060E+01
  0.1008E+01
  0.9571E+00
  0.9090E+00
  0.8630E+00
  0.8191E+00
  0.7772E+00
  0.7373E+00
  0.6991E+00
  0.6627E+00
  0.6280E+00
  0.5947E+00
  0.5627E+00
  0.5319E+00
  0.4997E+00
  0.4737E+00
  0.4710E+00
  0.4812E+00
  0.5160E+00
  0.5707E+00
  0.6379E+00
  0.7042E+00
  0.7633E+00
  0.8050E+00
  0.8076E+00
  0.7812E+00
  0.6872E+00
  0.5831E+00
  0.5186E+00
  0.5014E+00
  0.4983E+00
  0.5025E+00
  0.5121E+00
  0.5213E+00
  0.5287E+00
  0.5367E+00
  0.5453E+00
  0.5680E+00
  0.6026E+00
  0.8956E+00
  0.1645E+01
  0.1645E+01
  0.1645E+01
  0.1645E+01
  0.1645E+01
  0.1645E+01
  0.1644E+01
  0.1642E+01
  0.1635E+01
  0.1619E+01
  0.1590E+01
  0.1547E+01
  0.1493E+01
  0.1433E+01
  0.1370E+01
  0.1307E+01
  0.1245E+01
  0.1185E+01
  0.1127E+01
  0.1071E+01
  0.1018E+01
  0.9665E+00
  0.9176E+00
  0.8708E+00
  0.8263E+00
  0.7838E+00
  0.7432E+00
  0.7045E+00
  0.6676E+00
  0.6323E+00
  0.5984E+00
  0.5660E+00
  0.5345E+00
  0.5020E+00
  0.4761E+00
  0.4729E+00
  0.4837E+00
  0.5175E+00
  0.5706E+00
  0.6371E+00
  0.7045E+00
  0.7707E+00
  0.8139E+00
  0.8141E+00
  0.7879E+00
  0.6928E+00
  0.5872E+00
  0.5237E+00
  0.5082E+00
  0.5054E+00
  0.5099E+00
  0.5178E+00
  0.5247E+00
  0.5300E+00
  0.5362E+00
  0.5424E+00
  0.5412E+00
  0.5150E+00
  0.4513E+00
  0.5612E+00
  0.1576E+01
  0.1576E+01
  0.1576E+01
  0.1576E+01
  0.1576E+01
  0.1576E+01
  0.1576E+01
  0.1574E+01
  0.1568E+01
  0.1554E+01
  0.1528E+01
  0.1489E+01
  0.1438E+01
  0.1380E+01
  0.1319E+01
  0.1258E+01
  0.1199E+01
  0.1140E+01
  0.1084E+01
  0.1030E+01
  0.9780E+00
  0.9282E+00
  0.8807E+00
  0.8353E+00
  0.7920E+00
  0.7508E+00
  0.7114E+00
  0.6738E+00
  0.6378E+00
  0.6034E+00
  0.5704E+00
  0.5380E+00
  0.5048E+00
  0.4806E+00
  0.4761E+00
  0.4871E+00
  0.5235E+00
  0.5762E+00
  0.6360E+00
  0.7004E+00
  0.7640E+00
  0.8137E+00
  0.8188E+00
  0.7958E+00
  0.7010E+00
  0.5934E+00
  0.5290E+00
  0.5142E+00
  0.5121E+00
  0.5165E+00
  0.5233E+00
  0.5279E+00
  0.5313E+00
  0.5361E+00
  0.5417E+00
  0.5410E+00
  0.5154E+00
  0.4422E+00
  0.3479E+00
  0.3595E+00
  0.1514E+01
  0.1514E+01
  0.1514E+01
  0.1514E+01
  0.1514E+01
  0.1514E+01
  0.1513E+01
  0.1512E+01
  0.1507E+01
  0.1495E+01
  0.1472E+01
  0.1436E+01
  0.1388E+01
  0.1332E+01
  0.1274E+01
  0.1215E+01
  0.1157E+01
  0.1100E+01
  0.1046E+01
  0.9929E+00
  0.9423E+00
  0.8939E+00
  0.8476E+00
  0.8034E+00
  0.7611E+00
  0.7209E+00
  0.6824E+00
  0.6456E+00
  0.6104E+00
  0.5766E+00
  0.5429E+00
  0.5099E+00
  0.4892E+00
  0.4823E+00
  0.4938E+00
  0.5297E+00
  0.5856E+00
  0.6491E+00
  0.7052E+00
  0.7598E+00
  0.8031E+00
  0.8143E+00
  0.7934E+00
  0.7043E+00
  0.5981E+00
  0.5336E+00
  0.5188E+00
  0.5174E+00
  0.5217E+00
  0.5279E+00
  0.5312E+00
  0.5329E+00
  0.5364E+00
  0.5412E+00
  0.5404E+00
  0.5167E+00
  0.4460E+00
  0.3659E+00
  0.2929E+00
  0.2692E+00
  0.1461E+01
  0.1461E+01
  0.1461E+01
  0.1461E+01
  0.1461E+01
  0.1461E+01
  0.1461E+01
  0.1460E+01
  0.1456E+01
  0.1446E+01
  0.1425E+01
  0.1392E+01
  0.1346E+01
  0.1293E+01
  0.1237E+01
  0.1179E+01
  0.1123E+01
  0.1068E+01
  0.1014E+01
  0.9627E+00
  0.9132E+00
  0.8658E+00
  0.8204E+00
  0.7769E+00
  0.7353E+00
  0.6956E+00
  0.6575E+00
  0.6210E+00
  0.5855E+00
  0.5506E+00
  0.5212E+00
  0.5022E+00
  0.4933E+00
  0.5052E+00
  0.5419E+00
  0.5956E+00
  0.6591E+00
  0.7212E+00
  0.7728E+00
  0.8036E+00
  0.8069E+00
  0.7837E+00
  0.6959E+00
  0.5956E+00
  0.5341E+00
  0.5207E+00
  0.5207E+00
  0.5251E+00
  0.5308E+00
  0.5334E+00
  0.5344E+00
  0.5370E+00
  0.5410E+00
  0.5400E+00
  0.5163E+00
  0.4464E+00
  0.3670E+00
  0.3012E+00
  0.2518E+00
  0.2267E+00
  0.1423E+01
  0.1423E+01
  0.1423E+01
  0.1423E+01
  0.1423E+01
  0.1423E+01
  0.1423E+01
  0.1421E+01
  0.1418E+01
  0.1409E+01
  0.1390E+01
  0.1360E+01
  0.1317E+01
  0.1267E+01
  0.1212E+01
  0.1156E+01
  0.1100E+01
  0.1045E+01
  0.9922E+00
  0.9411E+00
  0.8918E+00
  0.8448E+00
  0.7998E+00
  0.7566E+00
  0.7149E+00
  0.6750E+00
  0.6368E+00
  0.6009E+00
  0.5684E+00
  0.5414E+00
  0.5195E+00
  0.5102E+00
  0.5224E+00
  0.5598E+00
  0.6140E+00
  0.6733E+00
  0.7304E+00
  0.7874E+00
  0.8192E+00
  0.8122E+00
  0.7803E+00
  0.6890E+00
  0.5885E+00
  0.5295E+00
  0.5182E+00
  0.5205E+00
  0.5264E+00
  0.5319E+00
  0.5341E+00
  0.5348E+00
  0.5371E+00
  0.5409E+00
  0.5398E+00
  0.5159E+00
  0.4462E+00
  0.3671E+00
  0.3015E+00
  0.2542E+00
  0.2231E+00
  0.2080E+00
  0.1409E+01
  0.1409E+01
  0.1409E+01
  0.1409E+01
  0.1409E+01
  0.1409E+01
  0.1409E+01
  0.1408E+01
  0.1405E+01
  0.1398E+01
  0.1382E+01
  0.1354E+01
  0.1313E+01
  0.1263E+01
  0.1209E+01
  0.1153E+01
  0.1097E+01
  0.1042E+01
  0.9886E+00
  0.9365E+00
  0.8862E+00
  0.8378E+00
  0.7915E+00
  0.7475E+00
  0.7059E+00
  0.6669E+00
  0.6307E+00
  0.5972E+00
  0.5674E+00
  0.5440E+00
  0.5354E+00
  0.5481E+00
  0.5849E+00
  0.6379E+00
  0.6956E+00
  0.7477E+00
  0.7948E+00
  0.8241E+00
  0.8221E+00
  0.7888E+00
  0.6877E+00
  0.5838E+00
  0.5241E+00
  0.5134E+00
  0.5170E+00
  0.5250E+00
  0.5318E+00
  0.5342E+00
  0.5348E+00
  0.5368E+00
  0.5403E+00
  0.5393E+00
  0.5155E+00
  0.4459E+00
  0.3669E+00
  0.3015E+00
  0.2543E+00
  0.2237E+00
  0.2075E+00
  0.2017E+00
  0.1409E+01
  0.1409E+01
  0.1409E+01
  0.1409E+01
  0.1409E+01
  0.1409E+01
  0.1408E+01
  0.1408E+01
  0.1405E+01
  0.1398E+01
  0.1383E+01
  0.1356E+01
  0.1317E+01
  0.1268E+01
  0.1214E+01
  0.1158E+01
  0.1101E+01
  0.1046E+01
  0.9915E+00
  0.9387E+00
  0.8877E+00
  0.8387E+00
  0.7921E+00
  0.7479E+00
  0.7064E+00
  0.6676E+00
  0.6320E+00
  0.6004E+00
  0.5762E+00
  0.5697E+00
  0.5834E+00
  0.6198E+00
  0.6693E+00
  0.7214E+00
  0.7692E+00
  0.8111E+00
  0.8330E+00
  0.8270E+00
  0.7937E+00
  0.6932E+00
  0.5834E+00
  0.5195E+00
  0.5078E+00
  0.5119E+00
  0.5214E+00
  0.5304E+00
  0.5341E+00
  0.5348E+00
  0.5366E+00
  0.5398E+00
  0.5386E+00
  0.5146E+00
  0.4455E+00
  0.3667E+00
  0.3014E+00
  0.2543E+00
  0.2237E+00
  0.2076E+00
  0.2016E+00
  0.2002E+00
  0.1413E+01
  0.1413E+01
  0.1413E+01
  0.1413E+01
  0.1413E+01
  0.1413E+01
  0.1413E+01
  0.1412E+01
  0.1410E+01
  0.1404E+01
  0.1391E+01
  0.1367E+01
  0.1329E+01
  0.1281E+01
  0.1228E+01
  0.1171E+01
  0.1114E+01
  0.1057E+01
  0.1002E+01
  0.9476E+00
  0.8956E+00
  0.8459E+00
  0.7986E+00
  0.7543E+00
  0.7131E+00
  0.6753E+00
  0.6428E+00
  0.6198E+00
  0.6162E+00
  0.6294E+00
  0.6633E+00
  0.7080E+00
  0.7531E+00
  0.7928E+00
  0.8274E+00
  0.8447E+00
  0.8366E+00
  0.8015E+00
  0.7011E+00
  0.5874E+00
  0.5166E+00
  0.5018E+00
  0.5061E+00
  0.5165E+00
  0.5276E+00
  0.5332E+00
  0.5347E+00
  0.5367E+00
  0.5398E+00
  0.5382E+00
  0.5138E+00
  0.4448E+00
  0.3662E+00
  0.3011E+00
  0.2541E+00
  0.2236E+00
  0.2076E+00
  0.2016E+00
  0.2002E+00
  0.2000E+00
  0.1427E+01
  0.1427E+01
  0.1427E+01
  0.1427E+01
  0.1427E+01
  0.1427E+01
  0.1427E+01
  0.1426E+01
  0.1425E+01
  0.1420E+01
  0.1408E+01
  0.1385E+01
  0.1349E+01
  0.1302E+01
  0.1247E+01
  0.1189E+01
  0.1130E+01
  0.1072E+01
  0.1015E+01
  0.9603E+00
  0.9077E+00
  0.8579E+00
  0.8112E+00
  0.7679E+00
  0.7289E+00
  0.6964E+00
  0.6745E+00
  0.6713E+00
  0.6838E+00
  0.7132E+00
  0.7507E+00
  0.7877E+00
  0.8202E+00
  0.8460E+00
  0.8552E+00
  0.8465E+00
  0.8116E+00
  0.7128E+00
  0.5949E+00
  0.5155E+00
  0.4961E+00
  0.4998E+00
  0.5106E+00
  0.5237E+00
  0.5315E+00
  0.5343E+00
  0.5368E+00
  0.5401E+00
  0.5385E+00
  0.5139E+00
  0.4444E+00
  0.3658E+00
  0.3008E+00
  0.2538E+00
  0.2234E+00
  0.2075E+00
  0.2016E+00
  0.2002E+00
  0.2000E+00
  0.2000E+00
  0.1446E+01
  0.1446E+01
  0.1446E+01
  0.1446E+01
  0.1446E+01
  0.1446E+01
  0.1446E+01
  0.1446E+01
  0.1444E+01
  0.1440E+01
  0.1430E+01
  0.1408E+01
  0.1373E+01
  0.1326E+01
  0.1270E+01
  0.1210E+01
  0.1149E+01
  0.1089E+01
  0.1031E+01
  0.9751E+00
  0.9223E+00
  0.8731E+00
  0.8281E+00
  0.7880E+00
  0.7554E+00
  0.7342E+00
  0.7305E+00
  0.7414E+00
  0.7652E+00
  0.7950E+00
  0.8243E+00
  0.8486E+00
  0.8643E+00
  0.8642E+00
  0.8549E+00
  0.8201E+00
  0.7248E+00
  0.6075E+00
  0.5190E+00
  0.4909E+00
  0.4931E+00
  0.5032E+00
  0.5185E+00
  0.5289E+00
  0.5336E+00
  0.5370E+00
  0.5407E+00
  0.5391E+00
  0.5145E+00
  0.4450E+00
  0.3659E+00
  0.3005E+00
  0.2537E+00
  0.2233E+00
  0.2075E+00
  0.2016E+00
  0.2002E+00
  0.2000E+00
  0.2000E+00
  0.2000E+00
  0.1466E+01
  0.1466E+01
  0.1466E+01
  0.1466E+01
  0.1466E+01
  0.1466E+01
  0.1466E+01
  0.1465E+01
  0.1464E+01
  0.1460E+01
  0.1450E+01
  0.1430E+01
  0.1396E+01
  0.1348E+01
  0.1291E+01
  0.1229E+01
  0.1167E+01
  0.1105E+01
  0.1045E+01
  0.9894E+00
  0.9375E+00
  0.8906E+00
  0.8495E+00
  0.8167E+00
  0.7953E+00
  0.7902E+00
  0.7983E+00
  0.8166E+00
  0.8392E+00
  0.8610E+00
  0.8754E+00
  0.8783E+00
  0.8720E+00
  0.8605E+00
  0.8237E+00
  0.7333E+00
  0.6196E+00
  0.5278E+00
  0.4885E+00
  0.4883E+00
  0.4960E+00
  0.5124E+00
  0.5253E+00
  0.5321E+00
  0.5369E+00
  0.5413E+00
  0.5398E+00
  0.5154E+00
  0.4455E+00
  0.3663E+00
  0.3009E+00
  0.2537E+00
  0.2233E+00
  0.2075E+00
  0.2016E+00
  0.2002E+00
  0.2000E+00
  0.2000E+00
  0.2000E+00
  0.2000E+00
  0.1480E+01
  0.1480E+01
  0.1480E+01
  0.1480E+01
  0.1480E+01
  0.1480E+01
  0.1480E+01
  0.1479E+01
  0.1478E+01
  0.1475E+01
  0.1466E+01
  0.1446E+01
  0.1412E+01
  0.1364E+01
  0.1306E+01
  0.1242E+01
  0.1178E+01
  0.1115E+01
  0.1056E+01
  0.1003E+01
  0.9542E+00
  0.9124E+00
  0.8793E+00
  0.8574E+00
  0.8495E+00
  0.8544E+00
  0.8677E+00
  0.8821E+00
  0.8931E+00
  0.8938E+00
  0.8876E+00
  0.8784E+00
  0.8617E+00
  0.8177E+00
  0.7319E+00
  0.6267E+00
  0.5365E+00
  0.4898E+00
  0.4862E+00
  0.4910E+00
  0.5068E+00
  0.5213E+00
  0.5301E+00
  0.5364E+00
  0.5416E+00
  0.5404E+00
  0.5161E+00
  0.4460E+00
  0.3667E+00
  0.3011E+00
  0.2539E+00
  0.2233E+00
  0.2075E+00
  0.2016E+00
  0.2002E+00
  0.2000E+00
  0.2000E+00
  0.2000E+00
  0.2000E+00
  0.2000E+00
  0.1487E+01
  0.1487E+01
  0.1487E+01
  0.1487E+01