# vtk DataFile Version 3.0
vtk output
ASCII
DATASET RECTILINEAR_GRID
DIMENSIONS          61          61 1
X_COORDINATES    61 double
  0.0000E+00
  0.1667E+00
  0.3333E+00
  0.5000E+00
  0.6667E+00
  0.8333E+00
  0.1000E+01
  0.1167E+01
  0.1333E+01
  0.1500E+01
  0.1667E+01
  0.1833E+01
  0.2000E+01
  0.2167E+01
  0.2333E+01
  0.2500E+01
  0.2667E+01
  0.2833E+01
  0.3000E+01
  0.3167E+01
  0.3333E+01
  0.3500E+01
  0.3667E+01
  0.3833E+01
  0.4000E+01
  0.4167E+01
  0.4333E+01
  0.4500E+01
  0.4667E+01
  0.4833E+01
  0.5000E+01
  0.5167E+01
  0.5333E+01
  0.5500E+01
  0.5667E+01
  0.5833E+01
  0.6000E+01
  0.6167E+01
  0.6333E+01
  0.6500E+01
  0.6667E+01
  0.6833E+01
  0.7000E+01
  0.7167E+01
  0.7333E+01
  0.7500E+01
  0.7667E+01
  0.7833E+01
  0.8000E+01
  0.8167E+01
  0.8333E+01
  0.8500E+01
  0.8667E+01
  0.8833E+01
  0.9000E+01
  0.9167E+01
  0.9333E+01
  0.9500E+01
  0.9667E+01
  0.9833E+01
  0.1000E+02
Y_COORDINATES    61 double
  0.0000E+00
  0.1667E+00
  0.3333E+00
  0.5000E+00
  0.6667E+00
  0.8333E+00
  0.1000E+01
  0.1167E+01
  0.1333E+01
  0.1500E+01
  0.1667E+01
  0.1833E+01
  0.2000E+01
  0.2167E+01
  0.2333E+01
  0.2500E+01
  0.2667E+01
  0.2833E+01
  0.3000E+01
  0.3167E+01
  0.3333E+01
  0.3500E+01
  0.3667E+01
  0.3833E+01
  0.4000E+01
  0.4167E+01
  0.4333E+01
  0.4500E+01
  0.4667E+01
  0.4833E+01
  0.5000E+01
  0.5167E+01
  0.5333E+01
  0.5500E+01
  0.5667E+01
  0.5833E+01
  0.6000E+01
  0.6167E+01
  0.6333E+01
  0.6500E+01
  0.6667E+01
  0.6833E+01
  0.7000E+01
  0.7167E+01
  0.7333E+01
  0.7500E+01
  0.7667E+01
  0.7833E+01
  0.8000E+01
  0.8167E+01
  0.8333E+01
  0.8500E+01
  0.8667E+01
  0.8833E+01
  0.9000E+01
  0.9167E+01
  0.9333E+01
  0.9500E+01
  0.9667E+01
  0.9833E+01
  0.1000E+02
Z_COORDINATES 1 double
0
CELL_DATA                 3600
FIELD FieldData 4
density 1                 3600 double
  0.6047E+01
  0.6047E+01
  0.6047E+01
  0.6047E+01
  0.6047E+01
  0.6047E+01
  0.6047E+01
  0.6047E+01
  0.6047E+01
  0.6047E+01
  0.6046E+01
  0.6046E+01
  0.6042E+01
  0.6029E+01
  0.5989E+01
  0.5894E+01
  0.5727E+01
  0.5496E+01
  0.5229E+01
  0.4952E+01
  0.4679E+01
  0.4415E+01
  0.4165E+01
  0.3929E+01
  0.3707E+01
  0.3500E+01
  0.3306E+01
  0.3123E+01
  0.2950E+01
  0.2786E+01
  0.2632E+01
  0.2485E+01
  0.2346E+01
  0.2213E+01
  0.2085E+01
  0.1963E+01
  0.1848E+01
  0.1743E+01
  0.1648E+01
  0.1566E+01
  0.1507E+01
  0.1475E+01
  0.1475E+01
  0.1484E+01
  0.1487E+01
  0.1480E+01
  0.1424E+01
  0.1290E+01
  0.1106E+01
  0.9167E+00
  0.7681E+00
  0.6807E+00
  0.6580E+00
  0.6597E+00
  0.6755E+00
  0.6687E+00
  0.5334E+00
  0.3249E+00
  0.2241E+00
  0.2007E+00
  0.5970E+01
  0.5970E+01
  0.5970E+01
  0.5970E+01
  0.5970E+01
  0.5970E+01
  0.5970E+01
  0.5970E+01
  0.5970E+01
  0.5970E+01
  0.5970E+01
  0.5969E+01
  0.5966E+01
  0.5953E+01
  0.5913E+01
  0.5821E+01
  0.5656E+01
  0.5427E+01
  0.5162E+01
  0.4887E+01
  0.4615E+01
  0.4352E+01
  0.4102E+01
  0.3866E+01
  0.3645E+01
  0.3438E+01
  0.3243E+01
  0.3060E+01
  0.2886E+01
  0.2723E+01
  0.2568E+01
  0.2422E+01
  0.2283E+01
  0.2150E+01
  0.2023E+01
  0.1903E+01
  0.1790E+01
  0.1686E+01
  0.1593E+01
  0.1514E+01
  0.1457E+01
  0.1426E+01
  0.1425E+01
  0.1435E+01
  0.1439E+01
  0.1433E+01
  0.1380E+01
  0.1256E+01
  0.1083E+01
  0.9037E+00
  0.7620E+00
  0.6772E+00
  0.6560E+00
  0.6583E+00
  0.6728E+00
  0.6636E+00
  0.5228E+00
  0.3191E+00
  0.2224E+00
  0.2006E+00
  0.5814E+01
  0.5814E+01
  0.5814E+01
  0.5814E+01
  0.5814E+01
  0.5814E+01
  0.5814E+01
  0.5814E+01
  0.5814E+01
  0.5814E+01
  0.5813E+01
  0.5813E+01
  0.5810E+01
  0.5798E+01
  0.5760E+01
  0.5671E+01
  0.5512E+01
  0.5288E+01
  0.5027E+01
  0.4756E+01
  0.4487E+01
  0.4226E+01
  0.3978E+01
  0.3744E+01
  0.3524E+01
  0.3318E+01
  0.3124E+01
  0.2942E+01
  0.2769E+01
  0.2607E+01
  0.2454E+01
  0.2309E+01
  0.2172E+01
  0.2042E+01
  0.1918E+01
  0.1800E+01
  0.1691E+01
  0.1591E+01
  0.1502E+01
  0.1427E+01
  0.1373E+01
  0.1343E+01
  0.1341E+01
  0.1351E+01
  0.1356E+01
  0.1350E+01
  0.1306E+01
  0.1197E+01
  0.1044E+01
  0.8805E+00
  0.7490E+00
  0.6693E+00
  0.6513E+00
  0.6551E+00
  0.6693E+00
  0.6563E+00
  0.5059E+00
  0.3096E+00
  0.2194E+00
  0.2005E+00
  0.5584E+01
  0.5584E+01
  0.5584E+01
  0.5584E+01
  0.5584E+01
  0.5584E+01
  0.5584E+01
  0.5584E+01
  0.5584E+01
  0.5583E+01
  0.5583E+01
  0.5583E+01
  0.5580E+01
  0.5569E+01
  0.5534E+01
  0.5451E+01
  0.5299E+01
  0.5084E+01
  0.4831E+01
  0.4566E+01
  0.4302E+01
  0.4047E+01
  0.3804E+01
  0.3574E+01
  0.3358E+01
  0.3156E+01
  0.2966E+01
  0.2787E+01
  0.2619E+01
  0.2461E+01
  0.2311E+01
  0.2171E+01
  0.2038E+01
  0.1912E+01
  0.1793E+01
  0.1681E+01
  0.1577E+01
  0.1482E+01
  0.1398E+01
  0.1327E+01
  0.1276E+01
  0.1246E+01
  0.1243E+01
  0.1251E+01
  0.1257E+01
  0.1253E+01
  0.1220E+01
  0.1130E+01
  0.9973E+00
  0.8514E+00
  0.7296E+00
  0.6566E+00
  0.6429E+00
  0.6496E+00
  0.6654E+00
  0.6456E+00
  0.4796E+00
  0.2960E+00
  0.2154E+00
  0.2003E+00
  0.5302E+01
  0.5302E+01
  0.5302E+01
  0.5302E+01
  0.5302E+01
  0.5302E+01
  0.5302E+01
  0.5302E+01
  0.5302E+01
  0.5302E+01
  0.5302E+01
  0.5301E+01
  0.5299E+01
  0.5289E+01
  0.5257E+01
  0.5181E+01
  0.5040E+01
  0.4835E+01
  0.4593E+01
  0.4337E+01
  0.4083E+01
  0.3836E+01
  0.3600E+01
  0.3378E+01
  0.3169E+01
  0.2973E+01
  0.2789E+01
  0.2617E+01
  0.2455E+01
  0.2303E+01
  0.2160E+01
  0.2025E+01
  0.1898E+01
  0.1779E+01
  0.1665E+01
  0.1559E+01
  0.1461E+01
  0.1371E+01
  0.1292E+01
  0.1225E+01
  0.1177E+01
  0.1147E+01
  0.1142E+01
  0.1147E+01
  0.1156E+01
  0.1156E+01
  0.1137E+01
  0.1066E+01
  0.9514E+00
  0.8193E+00
  0.7055E+00
  0.6403E+00
  0.6322E+00
  0.6424E+00
  0.6600E+00
  0.6290E+00
  0.4448E+00
  0.2799E+00
  0.2110E+00
  0.2002E+00
  0.4997E+01
  0.4997E+01
  0.4997E+01
  0.4997E+01
  0.4997E+01
  0.4997E+01
  0.4997E+01
  0.4997E+01
  0.4997E+01
  0.4997E+01
  0.4997E+01
  0.4997E+01
  0.4995E+01
  0.4986E+01
  0.4959E+01
  0.4890E+01
  0.4760E+01
  0.4568E+01
  0.4338E+01
  0.4094E+01
  0.3850E+01
  0.3614E+01
  0.3388E+01
  0.3174E+01
  0.2974E+01
  0.2787E+01
  0.2611E+01
  0.2446E+01
  0.2292E+01
  0.2147E+01
  0.2010E+01
  0.1883E+01
  0.1762E+01
  0.1649E+01
  0.1542E+01
  0.1441E+01
  0.1349E+01
  0.1265E+01
  0.1190E+01
  0.1127E+01
  0.1081E+01
  0.1052E+01
  0.1045E+01
  0.1048E+01
  0.1060E+01
  0.1066E+01
  0.1061E+01
  0.1014E+01
  0.9081E+00
  0.7841E+00
  0.6779E+00
  0.6238E+00
  0.6205E+00
  0.6354E+00
  0.6511E+00
  0.6009E+00
  0.4081E+00
  0.2627E+00
  0.2071E+00
  0.2001E+00
  0.4693E+01
  0.4693E+01
  0.4693E+01
  0.4693E+01
  0.4693E+01
  0.4693E+01
  0.4693E+01
  0.4693E+01
  0.4693E+01
  0.4693E+01
  0.4693E+01
  0.4692E+01
  0.4691E+01
  0.4684E+01
  0.4660E+01
  0.4599E+01
  0.4480E+01
  0.4302E+01
  0.4085E+01
  0.3853E+01
  0.3621E+01
  0.3396E+01
  0.3180E+01
  0.2976E+01
  0.2785E+01
  0.2607E+01
  0.2440E+01
  0.2283E+01
  0.2136E+01
  0.1998E+01
  0.1869E+01
  0.1748E+01
  0.1634E+01
  0.1527E+01
  0.1425E+01
  0.1331E+01
  0.1243E+01
  0.1164E+01
  0.1094E+01
  0.1034E+01
  0.9906E+00
  0.9606E+00
  0.9538E+00
  0.9574E+00
  0.9741E+00
  0.9933E+00
  0.9959E+00
  0.9686E+00
  0.8681E+00
  0.7459E+00
  0.6469E+00
  0.6083E+00
  0.6097E+00
  0.6323E+00
  0.6387E+00
  0.5636E+00
  0.3688E+00
  0.2459E+00
  0.2040E+00
  0.2000E+00
  0.4400E+01
  0.4400E+01
  0.4400E+01
  0.4400E+01
  0.4400E+01
  0.4400E+01
  0.4400E+01
  0.4400E+01
  0.4400E+01
  0.4400E+01
  0.4400E+01
  0.4399E+01
  0.4398E+01
  0.4392E+01
  0.4372E+01
  0.4318E+01
  0.4211E+01
  0.4047E+01
  0.3843E+01
  0.3624E+01
  0.3403E+01
  0.3188E+01
  0.2983E+01
  0.2789E+01
  0.2607E+01
  0.2437E+01
  0.2278E+01
  0.2129E+01
  0.1990E+01
  0.1859E+01
  0.1737E+01
  0.1622E+01
  0.1515E+01
  0.1413E+01
  0.1317E+01
  0.1228E+01
  0.1146E+01
  0.1071E+01
  0.1005E+01
  0.9485E+00
  0.9064E+00
  0.8767E+00
  0.8717E+00
  0.8774E+00
  0.9033E+00
  0.9410E+00
  0.9508E+00
  0.9273E+00
  0.8262E+00
  0.7058E+00
  0.6169E+00
  0.5942E+00
  0.6009E+00
  0.6273E+00
  0.6255E+00
  0.5131E+00
  0.3299E+00
  0.2307E+00
  0.2020E+00
  0.2000E+00
  0.4122E+01
  0.4122E+01
  0.4122E+01
  0.4122E+01
  0.4122E+01
  0.4122E+01
  0.4122E+01
  0.4122E+01
  0.4122E+01
  0.4122E+01
  0.4122E+01
  0.4122E+01
  0.4121E+01
  0.4116E+01
  0.4098E+01
  0.4052E+01
  0.3956E+01
  0.3805E+01
  0.3615E+01
  0.3407E+01
  0.3197E+01
  0.2993E+01
  0.2797E+01
  0.2613E+01
  0.2440E+01
  0.2278E+01
  0.2127E+01
  0.1986E+01
  0.1854E+01
  0.1730E+01
  0.1614E+01
  0.1505E+01
  0.1404E+01
  0.1307E+01
  0.1217E+01
  0.1133E+01
  0.1055E+01
  0.9848E+00
  0.9223E+00
  0.8692E+00
  0.8280E+00
  0.8013E+00
  0.7992E+00
  0.8114E+00
  0.8534E+00
  0.9121E+00
  0.9234E+00
  0.8876E+00
  0.7776E+00
  0.6621E+00
  0.5904E+00
  0.5822E+00
  0.5968E+00
  0.6213E+00
  0.6020E+00
  0.4535E+00
  0.2944E+00
  0.2182E+00
  0.2008E+00
  0.2000E+00
  0.3860E+01
  0.3860E+01
  0.3860E+01
  0.3860E+01
  0.3860E+01
  0.3860E+01
  0.3860E+01
  0.3860E+01
  0.3860E+01
  0.3860E+01
  0.3860E+01
  0.3860E+01
  0.3859E+01
  0.3855E+01
  0.3840E+01
  0.3800E+01
  0.3715E+01
  0.3577E+01
  0.3399E+01
  0.3203E+01
  0.3004E+01
  0.2810E+01
  0.2623E+01
  0.2448E+01
  0.2283E+01
  0.2129E+01
  0.1986E+01
  0.1852E+01
  0.1726E+01
  0.1609E+01
  0.1499E+01
  0.1397E+01
  0.1300E+01
  0.1209E+01
  0.1124E+01
  0.1044E+01
  0.9712E+00
  0.9051E+00
  0.8460E+00
  0.7961E+00
  0.7542E+00
  0.7371E+00
  0.7393E+00
  0.7625E+00
  0.8331E+00
  0.9009E+00
  0.9032E+00
  0.8403E+00
  0.7216E+00
  0.6172E+00
  0.5709E+00
  0.5717E+00
  0.5963E+00
  0.6134E+00
  0.5608E+00
  0.3913E+00
  0.2636E+00
  0.2093E+00
  0.2003E+00
  0.2000E+00
  0.3613E+01
  0.3613E+01
  0.3613E+01
  0.3613E+01
  0.3613E+01
  0.3613E+01
  0.3613E+01
  0.3613E+01
  0.3613E+01
  0.3613E+01
  0.3613E+01
  0.3613E+01
  0.3612E+01
  0.3609E+01
  0.3597E+01
  0.3562E+01
  0.3487E+01
  0.3361E+01
  0.3196E+01
  0.3011E+01
  0.2822E+01
  0.2637E+01
  0.2460E+01
  0.2293E+01
  0.2136E+01
  0.1990E+01
  0.1853E+01
  0.1726E+01
  0.1607E+01
  0.1496E+01
  0.1392E+01
  0.1295E+01
  0.1204E+01
  0.1118E+01
  0.1038E+01
  0.9625E+00
  0.8937E+00
  0.8314E+00
  0.7756E+00
  0.7280E+00
  0.6895E+00
  0.6834E+00
  0.6938E+00
  0.7500E+00
  0.8487E+00
  0.8933E+00
  0.8758E+00
  0.7804E+00
  0.6621E+00
  0.5763E+00
  0.5571E+00
  0.5676E+00
  0.5977E+00
  0.5969E+00
  0.4993E+00
  0.3361E+00
  0.2386E+00
  0.2040E+00
  0.2001E+00
  0.2000E+00
  0.3380E+01
  0.3380E+01
  0.3380E+01
  0.3380E+01
  0.3380E+01
  0.3380E+01
  0.3380E+01
  0.3380E+01
  0.3380E+01
  0.3380E+01
  0.3380E+01
  0.3380E+01
  0.3379E+01
  0.3377E+01
  0.3367E+01
  0.3337E+01
  0.3271E+01
  0.3158E+01
  0.3004E+01
  0.2830E+01
  0.2651E+01
  0.2475E+01
  0.2307E+01
  0.2147E+01
  0.1998E+01
  0.1859E+01
  0.1730E+01
  0.1609E+01
  0.1496E+01
  0.1391E+01
  0.1292E+01
  0.1201E+01
  0.1114E+01
  0.1033E+01
  0.9574E+00
  0.8867E+00
  0.8221E+00
  0.7631E+00
  0.7108E+00
  0.6620E+00
  0.6397E+00
  0.6430E+00
  0.6813E+00
  0.7735E+00
  0.8675E+00
  0.8790E+00
  0.8280E+00
  0.7115E+00
  0.6021E+00
  0.5476E+00
  0.5468E+00
  0.5707E+00
  0.5946E+00
  0.5664E+00
  0.4236E+00
  0.2899E+00
  0.2202E+00
  0.2014E+00
  0.2000E+00
  0.2000E+00
  0.3160E+01
  0.3160E+01
  0.3160E+01
  0.3160E+01
  0.3160E+01
  0.3160E+01
  0.3160E+01
  0.3160E+01
  0.3160E+01
  0.3160E+01
  0.3160E+01
  0.3160E+01
  0.3160E+01
  0.3158E+01
  0.3150E+01
  0.3125E+01
  0.3067E+01
  0.2965E+01
  0.2823E+01
  0.2659E+01
  0.2490E+01
  0.2323E+01
  0.2162E+01
  0.2011E+01
  0.1869E+01
  0.1737E+01
  0.1614E+01
  0.1499E+01
  0.1392E+01
  0.1292E+01
  0.1199E+01
  0.1113E+01
  0.1031E+01
  0.9547E+00
  0.8829E+00
  0.8165E+00
  0.7554E+00
  0.7000E+00
  0.6478E+00
  0.6078E+00
  0.6049E+00
  0.6329E+00
  0.7075E+00
  0.8180E+00
  0.8678E+00
  0.8501E+00
  0.7539E+00
  0.6345E+00
  0.5499E+00
  0.5316E+00
  0.5444E+00
  0.5764E+00
  0.5796E+00
  0.5044E+00
  0.3553E+00
  0.2538E+00
  0.2088E+00
  0.2004E+00
  0.2000E+00
  0.2000E+00
  0.2954E+01
  0.2954E+01
  0.2954E+01
  0.2954E+01
  0.2954E+01
  0.2954E+01
  0.2954E+01
  0.2954E+01
  0.2954E+01
  0.2954E+01
  0.2954E+01
  0.2954E+01
  0.2953E+01
  0.2952E+01
  0.2945E+01
  0.2925E+01
  0.2875E+01
  0.2783E+01
  0.2653E+01
  0.2499E+01
  0.2339E+01
  0.2180E+01
  0.2027E+01
  0.1883E+01
  0.1748E+01
  0.1622E+01
  0.1505E+01
  0.1397E+01
  0.1295E+01
  0.1201E+01
  0.1113E+01
  0.1031E+01
  0.9536E+00
  0.8812E+00
  0.8137E+00
  0.7510E+00
  0.6933E+00
  0.6389E+00
  0.5891E+00
  0.5787E+00
  0.5962E+00
  0.6584E+00
  0.7644E+00
  0.8462E+00
  0.8475E+00
  0.7818E+00
  0.6618E+00
  0.5613E+00
  0.5205E+00
  0.5248E+00
  0.5536E+00
  0.5747E+00
  0.5478E+00
  0.4219E+00
  0.2992E+00
  0.2277E+00
  0.2031E+00
  0.2001E+00
  0.2000E+00
  0.2000E+00
  0.2759E+01
  0.2759E+01
  0.2759E+01
  0.2759E+01
  0.2759E+01
  0.2759E+01
  0.2759E+01
  0.2759E+01
  0.2759E+01
  0.2759E+01
  0.2759E+01
  0.2759E+01
  0.2758E+01
  0.2757E+01
  0.2752E+01
  0.2735E+01
  0.2692E+01
  0.2611E+01
  0.2491E+01
  0.2348E+01
  0.2196E+01
  0.2045E+01
  0.1900E+01
  0.1763E+01
  0.1634E+01
  0.1515E+01
  0.1403E+01
  0.1300E+01
  0.1204E+01
  0.1114E+01
  0.1031E+01
  0.9536E+00
  0.8807E+00
  0.8125E+00
  0.7486E+00
  0.6893E+00
  0.6340E+00
  0.5793E+00
  0.5582E+00
  0.5711E+00
  0.6221E+00
  0.7181E+00
  0.8223E+00
  0.8385E+00
  0.7947E+00
  0.6782E+00
  0.5710E+00
  0.5141E+00
  0.5110E+00
  0.5297E+00
  0.5589E+00
  0.5561E+00
  0.4776E+00
  0.3482E+00
  0.2569E+00
  0.2117E+00
  0.2008E+00
  0.2000E+00
  0.2000E+00
  0.2000E+00
  0.2574E+01
  0.2574E+01
  0.2574E+01
  0.2574E+01
  0.2574E+01
  0.2574E+01
  0.2574E+01
  0.2574E+01
  0.2574E+01
  0.2574E+01
  0.2574E+01
  0.2574E+01
  0.2574E+01
  0.2573E+01
  0.2569E+01
  0.2555E+01
  0.2519E+01
  0.2447E+01
  0.2338E+01
  0.2204E+01
  0.2061E+01
  0.1918E+01
  0.1780E+01
  0.1649E+01
  0.1527E+01
  0.1413E+01
  0.1307E+01
  0.1209E+01
  0.1118E+01
  0.1033E+01
  0.9546E+00
  0.8812E+00
  0.8125E+00
  0.7479E+00
  0.6875E+00
  0.6310E+00
  0.5735E+00
  0.5461E+00
  0.5547E+00
  0.5977E+00
  0.6837E+00
  0.7948E+00
  0.8285E+00
  0.7973E+00
  0.6890E+00
  0.5770E+00
  0.5104E+00
  0.5007E+00
  0.5134E+00
  0.5436E+00
  0.5521E+00
  0.5067E+00
  0.3911E+00
  0.2902E+00
  0.2277E+00
  0.2039E+00
  0.2002E+00
  0.2000E+00
  0.2000E+00
  0.2000E+00
  0.2399E+01
  0.2399E+01
  0.2399E+01
  0.2399E+01
  0.2399E+01
  0.2399E+01
  0.2399E+01
  0.2399E+01
  0.2399E+01
  0.2399E+01
  0.2399E+01
  0.2399E+01
  0.2399E+01
  0.2399E+01
  0.2395E+01
  0.2384E+01
  0.2354E+01
  0.2291E+01
  0.2192E+01
  0.2068E+01
  0.1933E+01
  0.1797E+01
  0.1666E+01
  0.1542E+01
  0.1425E+01
  0.1317E+01
  0.1217E+01
  0.1124E+01
  0.1037E+01
  0.9573E+00
  0.8829E+00
  0.8136E+00
  0.7486E+00
  0.6875E+00
  0.6301E+00
  0.5700E+00
  0.5398E+00
  0.5450E+00
  0.5772E+00
  0.6520E+00
  0.7695E+00
  0.8185E+00
  0.7982E+00
  0.6981E+00
  0.5835E+00
  0.5110E+00
  0.4964E+00
  0.5037E+00
  0.5316E+00
  0.5456E+00
  0.5192E+00
  0.4229E+00
  0.3209E+00
  0.2483E+00
  0.2108E+00
  0.2010E+00
  0.2000E+00
  0.2000E+00
  0.2000E+00
  0.2000E+00
  0.2235E+01
  0.2235E+01
  0.2235E+01
  0.2235E+01
  0.2235E+01
  0.2235E+01
  0.2235E+01
  0.2235E+01
  0.2235E+01
  0.2235E+01
  0.2235E+01
  0.2235E+01
  0.2235E+01
  0.2235E+01
  0.2232E+01
  0.2223E+01
  0.2198E+01
  0.2143E+01
  0.2054E+01
  0.1939E+01
  0.1812E+01
  0.1684E+01
  0.1560E+01
  0.1441E+01
  0.1331E+01
  0.1228E+01
  0.1133E+01
  0.1044E+01
  0.9624E+00
  0.8866E+00
  0.8165E+00
  0.7509E+00
  0.6894E+00
  0.6311E+00
  0.5700E+00
  0.5375E+00
  0.5406E+00
  0.5686E+00
  0.6328E+00
  0.7378E+00
  0.8058E+00
  0.7979E+00
  0.7091E+00
  0.5907E+00
  0.5163E+00
  0.4981E+00
  0.5014E+00
  0.5233E+00
  0.5387E+00
  0.5232E+00
  0.4449E+00
  0.3456E+00
  0.2686E+00
  0.2212E+00
  0.2032E+00
  0.2002E+00
  0.2000E+00
  0.2000E+00
  0.2000E+00
  0.2000E+00
  0.2082E+01
  0.2082E+01
  0.2082E+01
  0.2082E+01
  0.2082E+01
  0.2082E+01
  0.2082E+01
  0.2082E+01
  0.2082E+01
  0.2082E+01
  0.2082E+01
  0.2082E+01
  0.2082E+01
  0.2082E+01
  0.2080E+01
  0.2073E+01
  0.2052E+01
  0.2005E+01
  0.1925E+01
  0.1819E+01
  0.1700E+01
  0.1579E+01
  0.1461E+01
  0.1349E+01
  0.1243E+01
  0.1145E+01
  0.1055E+01
  0.9711E+00
  0.8936E+00
  0.8220E+00
  0.7554E+00
  0.6932E+00
  0.6338E+00
  0.5715E+00
  0.5404E+00
  0.5413E+00
  0.5602E+00
  0.6211E+00
  0.7314E+00
  0.8065E+00
  0.8009E+00
  0.7215E+00
  0.6007E+00
  0.5233E+00
  0.5037E+00
  0.5048E+00
  0.5215E+00
  0.5356E+00
  0.5242E+00
  0.4564E+00
  0.3628E+00
  0.2855E+00
  0.2328E+00
  0.2072E+00
  0.2007E+00
  0.2000E+00
  0.2000E+00
  0.2000E+00
  0.2000E+00
  0.2000E+00
  0.1943E+01
  0.1943E+01
  0.1943E+01
  0.1943E+01
  0.1943E+01
  0.1943E+01
  0.1943E+01
  0.1943E+01
  0.1943E+01
  0.1943E+01
  0.1943E+01
  0.1943E+01
  0.1943E+01
  0.1942E+01
  0.1941E+01
  0.1935E+01
  0.1918E+01
  0.1878E+01
  0.1807E+01
  0.1710E+01
  0.1598E+01
  0.1484E+01
  0.1372E+01
  0.1264E+01
  0.1164E+01
  0.1071E+01
  0.9846E+00
  0.9050E+00
  0.8313E+00
  0.7630E+00
  0.6999E+00
  0.6392E+00
  0.5777E+00
  0.5473E+00
  0.5466E+00
  0.5666E+00
  0.6201E+00
  0.7160E+00
  0.8101E+00
  0.8111E+00
  0.7416E+00
  0.6182E+00
  0.5334E+00
  0.5111E+00
  0.5111E+00
  0.5245E+00
  0.5364E+00
  0.5254E+00
  0.4619E+00
  0.3727E+00
  0.2976E+00
  0.2433E+00
  0.2123E+00
  0.2018E+00
  0.2001E+00
  0.2000E+00
  0.2000E+00
  0.2000E+00
  0.2000E+00
  0.2000E+00
  0.1817E+01
  0.1817E+01
  0.1817E+01
  0.1817E+01
  0.1817E+01
  0.1817E+01
  0.1817E+01
  0.1817E+01
  0.1817E+01
  0.1817E+01
  0.1817E+01
  0.1817E+01
  0.1817E+01
  0.1817E+01
  0.1816E+01
  0.1812E+01
  0.1798E+01
  0.1763E+01
  0.1701E+01
  0.1612E+01
  0.1507E+01
  0.1399E+01
  0.1292E+01
  0.1190E+01
  0.1094E+01
  0.1005E+01
  0.9221E+00
  0.8459E+00
  0.7755E+00
  0.7106E+00
  0.6478E+00
  0.5890E+00
  0.5596E+00
  0.5577E+00
  0.5769E+00
  0.6315E+00
  0.7256E+00
  0.8041E+00
  0.8109E+00
  0.7578E+00
  0.6352E+00
  0.5457E+00
  0.5197E+00
  0.5187E+00
  0.5298E+00
  0.5396E+00
  0.5278E+00
  0.4660E+00
  0.3789E+00
  0.3051E+00
  0.2512E+00
  0.2175E+00
  0.2033E+00
  0.2003E+00
  0.2000E+00
  0.2000E+00
  0.2000E+00
  0.2000E+00
  0.2000E+00
  0.2000E+00
  0.1710E+01
  0.1710E+01
  0.1710E+01
  0.1710E+01
  0.1710E+01
  0.1710E+01
  0.1710E+01
  0.1710E+01
  0.1710E+01
  0.1710E+01
  0.1710E+01
  0.1710E+01
  0.1710E+01
  0.1709E+01
  0.1709E+01
  0.1705E+01
  0.1694E+01
  0.1665E+01
  0.1610E+01
  0.1528E+01
  0.1431E+01
  0.1327E+01
  0.1225E+01
  0.1127E+01
  0.1034E+01
  0.9484E+00
  0.8691E+00
  0.7960E+00
  0.7279E+00
  0.6624E+00
  0.6079E+00
  0.5768E+00
  0.5734E+00
  0.5961E+00
  0.6567E+00
  0.7405E+00
  0.8043E+00
  0.8057E+00
  0.7510E+00
  0.6387E+00
  0.5535E+00
  0.5277E+00
  0.5260E+00
  0.5355E+00
  0.5433E+00
  0.5305E+00
  0.4677E+00
  0.3817E+00
  0.3095E+00
  0.2563E+00
  0.2217E+00
  0.2052E+00
  0.2006E+00
  0.2000E+00
  0.2000E+00
  0.2000E+00
  0.2000E+00
  0.2000E+00
  0.2000E+00
  0.2000E+00
  0.1628E+01
  0.1628E+01
  0.1628E+01
  0.1628E+01
  0.1628E+01
  0.1628E+01
  0.1628E+01
  0.1628E+01
  0.1628E+01
  0.1628E+01
  0.1628E+01
  0.1628E+01
  0.1628E+01
  0.1628E+01
  0.1627E+01
  0.1624E+01
  0.1615E+01
  0.1591E+01
  0.1543E+01
  0.1468E+01
  0.1376E+01
  0.1276E+01
  0.1177E+01
  0.1081E+01
  0.9905E+00
  0.9063E+00
  0.8280E+00
  0.7545E+00
  0.6896E+00
  0.6395E+00
  0.6035E+00
  0.5985E+00
  0.6202E+00
  0.6816E+00
  0.7709E+00
  0.8138E+00
  0.8019E+00
  0.7376E+00
  0.6307E+00
  0.5519E+00
  0.5302E+00
  0.5311E+00
  0.5406E+00
  0.5467E+00
  0.5331E+00
  0.4689E+00
  0.3823E+00
  0.3110E+00
  0.2592E+00
  0.2246E+00
  0.2068E+00
  0.2010E+00
  0.2001E+00
  0.2000E+00
  0.2000E+00
  0.2000E+00
  0.2000E+00
  0.2000E+00
  0.2000E+00
  0.2000E+00
  0.1579E+01
  0.1579E+01
  0.1579E+01
  0.1579E+01
  0.1579E+01
  0.1579E+01
  0.1579E+01
  0.1579E+01
  0.1579E+01
  0.1579E+01
  0.1579E+01
  0.1579E+01
  0.1579E+01
  0.1579E+01
  0.1579E+01
  0.1577E+01
  0.1569E+01
  0.1548E+01
  0.1504E+01
  0.1435E+01
  0.1345E+01
  0.1247E+01
  0.1147E+01
  0.1051E+01
  0.9605E+00
  0.8767E+00
  0.8014E+00
  0.7370E+00
  0.6830E+00
  0.6420E+00
  0.6335E+00
  0.6571E+00
  0.7183E+00
  0.7923E+00
  0.8192E+00
  0.8025E+00
  0.7233E+00
  0.6167E+00
  0.5437E+00
  0.5251E+00
  0.5300E+00
  0.5429E+00
  0.5492E+00
  0.5350E+00
  0.4696E+00
  0.3830E+00
  0.3116E+00
  0.2603E+00
  0.2263E+00
  0.2079E+00
  0.2014E+00
  0.2001E+00
  0.2000E+00
  0.2000E+00
  0.2000E+00
  0.2000E+00
  0.2000E+00
  0.2000E+00
  0.2000E+00
  0.2000E+00
  0.1565E+01
  0.1565E+01
  0.1565E+01
  0.1565E+01
  0.1565E+01
  0.1565E+01
  0.1565E+01
  0.1565E+01
  0.1565E+01
  0.1565E+01
  0.1565E+01
  0.1565E+01
  0.1565E+01
  0.1565E+01
  0.1564E+01
  0.1563E+01
  0.1557E+01
  0.1540E+01
  0.1500E+01
  0.1432E+01
  0.1343E+01
  0.1243E+01
  0.1142E+01
  0.1045E+01
  0.9539E+00
  0.8716E+00
  0.7992E+00
  0.7389E+00
  0.6934E+00
  0.6823E+00
  0.7062E+00
  0.7651E+00
  0.8210E+00
  0.8251E+00
  0.8003E+00
  0.7097E+00
  0.6031E+00
  0.5344E+00
  0.5187E+00
  0.5244E+00
  0.5396E+00
  0.5485E+00
  0.5358E+00
  0.4702E+00
  0.3831E+00
  0.3119E+00
  0.2607E+00
  0.2270E+00
  0.2086E+00
  0.2017E+00
  0.2002E+00
  0.2000E+00
  0.2000E+00
  0.2000E+00
  0.2000E+00
  0.2000E+00
  0.2000E+00
  0.2000E+00
  0.2000E+00
  0.2000E+00
  0.1564E+01
  0.1564E+01
  0.1564E+01
  0.1564E+01
  0.1564E+01
  0.1564E+01
  0.1564E+01
  0.1564E+01
  0.1564E+01
  0.1564E+01
  0.1564E+01
  0.1564E+01
  0.1564E+01
  0.1564E+01
  0.1564E+01
  0.1562E+01
  0.1557E+01
  0.1542E+01
  0.1506E+01
  0.1441E+01
  0.1353E+01
  0.1251E+01
  0.1147E+01
  0.1048E+01
  0.9573E+00
  0.8774E+00
  0.8113E+00
  0.7632E+00
  0.7504E+00
  0.7724E+00
  0.8194E+00
  0.8484E+00
  0.8380E+00
  0.7975E+00
  0.6981E+00
  0.5910E+00
  0.5241E+00
  0.5107E+00
  0.5182E+00
  0.5354E+00
  0.5455E+00
  0.5338E+00
  0.4701E+00
  0.3836E+00
  0.3120E+00
  0.2607E+00
  0.2271E+00
  0.2089E+00
  0.2019E+00
  0.2002E+00
  0.2000E+00
  0.2000E+00
  0.2000E+00
  0.2000E+00
  0.2000E+00
  0.2000E+00
  0.2000E+00
  0.2000E+00
  0.2000E+00
  0.2000E+00
  0.1566E+01
  0.1566E+01
  0.1566E+01
  0.1566E+01
  0.1566E+01
  0.1566E+01
  0.1566E+01
  0.1566E+01
  0.1566E+01
  0.1566E+01
  0.1566E+01
  0.1566E+01
  0.1566E+01
  0.1566E+01
  0.1566E+01
  0.1564E+01
  0.1560E+01
  0.1545E+01
  0.1509E+01
  0.1446E+01
  0.1357E+01
  0.1257E+01
  0.1156E+01
  0.1060E+01
  0.9741E+00
  0.9034E+00
  0.8536E+00
  0.8335E+00
  0.8488E+00
  0.8679E+00
  0.8654E+00
  0.8493E+00
  0.7935E+00
  0.6894E+00
  0.5832E+00
  0.5162E+00
  0.5028E+00
  0.5105E+00
  0.5308E+00
  0.5430E+00
  0.5323E+00
  0.4690E+00
  0.3829E+00
  0.3121E+00
  0.2609E+00
  0.2272E+00
  0.2090E+00
  0.2020E+00
  0.2003E+00
  0.2000E+00
  0.2000E+00
  0.2000E+00
  0.2000E+00
  0.2000E+00
  0.2000E+00
  0.2000E+00
  0.2000E+00
  0.2000E+00
  0.2000E+00
  0.2000E+00
  0.1561E+01
  0.1561E+01
  0.1561E+01
  0.1561E+01
  0.1561E+01
  0.1561E+01
  0.1561E+01
  0.1561E+01
  0.1561E+01
  0.1561E+01
  0.1561E+01
  0.1561E+01
  0.1561E+01
  0.1561E+01
  0.1561E+01
  0.1559E+01
  0.1554E+01
  0.1539E+01
  0.1503E+01
  0.1439E+01
  0.1352E+01
  0.1254E+01
  0.1156E+01
  0.1067E+01
  0.9935E+00
  0.9410E+00
  0.9121E+00
  0.9008E+00
  0.8921E+00
  0.8791E+00
  0.8494E+00
  0.7804E+00
  0.6793E+00
  0.5781E+00
  0.5121E+00
  0.4979E+00
  0.5040E+00
  0.5256E+00
  0.5395E+00
  0.5301E+00
  0.4693E+00
  0.3830E+00
  0.3119E+00
  0.2608E+00
  0.2272E+00
  0.2090E+00
  0.2020E+00
  0.2003E+00
  0.2000E+00
  0.2000E+00
  0.2000E+00
  0.2000E+00
  0.2000E+00
  0.2000E+00
  0.2000E+00
  0.2000E+00
  0.2000E+00
  0.2000E+00
  0.2000E+00
  0.2000E+00
  0.1515E+01
  0.1515E+01
  0.1515E+01
  0.1515E+01
  0.1515E+01
  0.1515E+01
  0.1515E+01
  0.1515E+01
  0.1515E+01
  0.1515E+01
  0.1515E+01
  0.1515E+01
  0.1515E+01
  0.1515E+01
  0.1514E+01
  0.1512E+01
  0.1505E+01
  0.1488E+01
  0.1451E+01
  0.1389E+01
  0.1308E+01
  0.1221E+01
  0.1137E+01
  0.1061E+01
  0.9962E+00
  0.9508E+00
  0.9233E+00
  0.9030E+00
  0.8755E+00
  0.8277E+00
  0.7536E+00
  0.6611E+00
  0.5712E+00
  0.5110E+00
  0.4976E+00
  0.5017E+00
  0.5223E+00
  0.5365E+00
  0.5274E+00
  0.4682E+00
  0.3826E+00
  0.3118E+00
  0.2608E+00
  0.2272E+00
  0.2091E+00
  0.2020E+00
  0.2003E+00
  0.2000E+00
  0.2000E+00
  0.2000E+00
  0.2000E+00
  0.2000E+00
  0.2000E+00
  0.2000E+00
  0.2000E+00
  0.2000E+00
  0.2000E+00
  0.2000E+00
  0.2000E+00
  0.2000E+00
  0.1391E+01
  0.1391E+01
  0.1391E+01
  0.1391E+01
  0.1391E+01
  0.1391E+01
  0.1391E+01
  0.1391E+01
  0.1391E+01
  0.1391E+01
  0.1391E+01
  0.1391E+01
  0.1391E+01
  0.1391E+01
  0.1390E+01
  0.1387E+01
  0.1378E+01
  0.1359E+01
  0.1323E+01
  0.1268E+01
  0.1201E+01
  0.1131E+01
  0.1066E+01
  0.1014E+01
  0.9686E+00
  0.9271E+00
  0.8874E+00
  0.8400E+00
  0.7805E+00
  0.7114E+00
  0.6340E+00
  0.5609E+00
  0.5128E+00
  0.5011E+00
  0.5052E+00
  0.5238E+00
  0.5360E+00
  0.5251E+00
  0.4659E+00
  0.3819E+00
  0.3113E+00
  0.2604E+00
  0.2270E+00
  0.2090E+00
  0.2020E+00
  0.2003E+00
  0.2000E+00
  0.2000E+00
  0.2000E+00
  0.2000E+00
  0.2000E+00
  0.2000E+00
  0.2000E+00
  0.2000E+00
  0.2000E+00
  0.2000E+00
  0.2000E+00
  0.2000E+00
  0.2000E+00
  0.2000E+00
  0.1212E+01
  0.1212E+01
  0.1212E+01
  0.1212E+01
  0.1212E+01
  0.1212E+01
  0.1212E+01
  0.1212E+01
  0.1212E+01
  0.1212E+01
  0.1212E+01
  0.1212E+01
  0.1211E+01
  0.1211E+01
  0.1209E+01
  0.1205E+01
  0.1195E+01
  0.1175E+01
  0.1143E+01
  0.1099E+01
  0.1050E+01
  0.9991E+00
  0.9517E+00
  0.9080E+00
  0.8680E+00
  0.8259E+00
  0.7772E+00
  0.7215E+00
  0.6618E+00
  0.6020E+00
  0.5500E+00
  0.5205E+00
  0.5090E+00
  0.5144E+00
  0.5310E+00
  0.5388E+00
  0.5244E+00
  0.4614E+00
  0.3786E+00
  0.3094E+00
  0.2592E+00
  0.2262E+00
  0.2086E+00
  0.2019E+00
  0.2003E+00
  0.2000E+00
  0.2000E+00
  0.2000E+00
  0.2000E+00
  0.2000E+00
  0.2000E+00
  0.2000E+00
  0.2000E+00
  0.2000E+00
  0.2000E+00
  0.2000E+00
  0.2000E+00
  0.2000E+00
  0.2000E+00
  0.2000E+00
  0.1020E+01
  0.1020E+01
  0.1020E+01
  0.1020E+01
  0.1020E+01
  0.1020E+01
  0.1020E+01
  0.1020E+01
  0.1020E+01
  0.1020E+01
  0.1020E+01
  0.1020E+01
  0.1020E+01
  0.1019E+01
  0.1017E+01
  0.1011E+01
  0.1000E+01
  0.9810E+00
  0.9545E+00
  0.9229E+00
  0.8888E+00
  0.8543E+00
  0.8201E+00
  0.7841E+00
  0.7459E+00
  0.7056E+00
  0.6620E+00
  0.6168E+00
  0.5761E+00
  0.5472E+00
  0.5323E+00
  0.5241E+00
  0.5305E+00
  0.5442E+00
  0.5439E+00
  0.5240E+00
  0.4551E+00
  0.3727E+00
  0.3050E+00
  0.2562E+00
  0.2245E+00
  0.2079E+00
  0.2017E+00
  0.2002E+00
  0.2000E+00
  0.2000E+00
  0.2000E+00
  0.2000E+00
  0.2000E+00
  0.2000E+00
  0.2000E+00
  0.2000E+00
  0.2000E+00
  0.2000E+00
  0.2000E+00
  0.2000E+00
  0.2000E+00
  0.2000E+00
  0.2000E+00
  0.2000E+00
  0.8640E+00
  0.8640E+00
  0.8640E+00
  0.8640E+00
  0.8640E+00
  0.8640E+00
  0.8640E+00
  0.8640E+00
  0.8640E+00
  0.8640E+00
  0.8640E+00
  0.8640E+00
  0.8637E+00
  0.8628E+00
  0.8603E+00
  0.8541E+00
  0.8427E+00
  0.8259E+00
  0.8054E+00
  0.7830E+00
  0.7591E+00
  0.7336E+00
  0.7067E+00
  0.6781E+00
  0.6470E+00
  0.6167E+00
  0.5905E+00
  0.5708E+00
  0.5570E+00
  0.5463E+00
  0.5448E+00
  0.5523E+00
  0.5602E+00
  0.5519E+00
  0.5197E+00
  0.4435E+00
  0.3624E+00
  0.2976E+00
  0.2512E+00
  0.2217E+00
  0.2068E+00
  0.2014E+00
  0.2002E+00
  0.2000E+00
  0.2000E+00
  0.2000E+00
  0.2000E+00
  0.2000E+00
  0.2000E+00
  0.2000E+00
  0.2000E+00
  0.2000E+00
  0.2000E+00
  0.2000E+00
  0.2000E+00
  0.2000E+00
  0.2000E+00
  0.2000E+00
  0.2000E+00
  0.2000E+00
  0.7686E+00
  0.7686E+00
  0.7686E+00
  0.7686E+00
  0.7686E+00
  0.7686E+00
  0.7686E+00
  0.7686E+00
  0.7686E+00
  0.7686E+00
  0.7686E+00
  0.7685E+00
  0.7682E+00
  0.7672E+00
  0.7643E+00
  0.7579E+00
  0.7470E+00
  0.7324E+00
  0.7159E+00
  0.6985E+00
  0.6802E+00
  0.6612E+00
  0.6418E+00
  0.6242E+00
  0.6084E+00
  0.5942E+00
  0.5820E+00
  0.5717E+00
  0.5671E+00
  0.5706E+00
  0.5766E+00
  0.5735E+00
  0.5572E+00
  0.5087E+00
  0.4242E+00
  0.3454E+00
  0.2855E+00
  0.2433E+00
  0.2175E+00
  0.2052E+00
  0.2010E+00
  0.2001E+00
  0.2000E+00
  0.2000E+00
  0.2000E+00
  0.2000E+00
  0.2000E+00
  0.2000E+00
  0.2000E+00
  0.2000E+00
  0.2000E+00
  0.2000E+00
  0.2000E+00
  0.2000E+00
  0.2000E+00
  0.2000E+00
  0.2000E+00
  0.2000E+00
  0.2000E+00
  0.2000E+00
  0.7380E+00
  0.7380E+00
  0.7380E+00
  0.7380E+00
  0.7380E+00
  0.7380E+00
  0.7380E+00
  0.7380E+00
  0.7380E+00
  0.7380E+00
  0.7380E+00
  0.7379E+00
  0.7375E+00
  0.7364E+00
  0.7332E+00
  0.7268E+00
  0.7167E+00
  0.7043E+00
  0.6909E+00
  0.6769E+00
  0.6625E+00
  0.6480E+00
  0.6341E+00
  0.6210E+00
  0.6099E+00
  0.6010E+00
  0.5968E+00
  0.5967E+00
  0.5976E+00
  0.5938E+00
  0.5804E+00
  0.5463E+00
  0.4760E+00
  0.3923E+00
  0.3211E+00
  0.2686E+00
  0.2329E+00
  0.2123E+00
  0.2034E+00
  0.2006E+00
  0.2001E+00
  0.2000E+00
  0.2000E+00
  0.2000E+00
  0.2000E+00
  0.2000E+00
  0.2000E+00
  0.2000E+00
  0.2000E+00
  0.2000E+00
  0.2000E+00
  0.2000E+00
  0.2000E+00
  0.2000E+00
  0.2000E+00
  0.2000E+00
  0.2000E+00
  0.2000E+00
  0.2000E+00
  0.2000E+00
  0.7364E+00
  0.7364E+00
  0.7364E+00
  0.7364E+00
  0.7364E+00
  0.7364E+00
  0.7364E+00
  0.7364E+00
  0.7364E+00
  0.7364E+00
  0.7364E+00
  0.7364E+00
  0.7360E+00
  0.7348E+00
  0.7317E+00
  0.7253E+00
  0.7156E+00
  0.7038E+00
  0.6913E+00
  0.6784E+00
  0.6662E+00
  0.6548E+00
  0.6443E+00
  0.6361E+00
  0.6324E+00
  0.6275E+00
  0.6215E+00
  0.6130E+00
  0.5974E+00
  0.5658E+00
  0.5040E+00
  0.4218E+00
  0.3477E+00
  0.2900E+00
  0.2481E+00
  0.2211E+00
  0.2072E+00
  0.2018E+00
  0.2003E+00
  0.2000E+00
  0.2000E+00
  0.2000E+00
  0.2000E+00
  0.2000E+00
  0.2000E+00
  0.2000E+00
  0.2000E+00
  0.2000E+00
  0.2000E+00
  0.2000E+00
  0.2000E+00
  0.2000E+00
  0.2000E+00
  0.2000E+00
  0.2000E+00
  0.2000E+00
  0.2000E+00
  0.2000E+00
  0.2000E+00
  0.2000E+00
  0.7423E+00
  0.7423E+00
  0.7423E+00
  0.7423E+00