# vtk DataFile Version 3.0
vtk output
ASCII
DATASET RECTILINEAR_GRID
DIMENSIONS          61          61 1
X_COORDINATES    61 double
  0.0000E+00
  0.1667E+00
  0.3333E+00
  0.5000E+00
  0.6667E+00
  0.8333E+00
  0.1000E+01
  0.1167E+01
  0.1333E+01
  0.1500E+01
  0.1667E+01
  0.1833E+01
  0.2000E+01
  0.2167E+01
  0.2333E+01
  0.2500E+01
  0.2667E+01
  0.2833E+01
  0.3000E+01
  0.3167E+01
  0.3333E+01
  0.3500E+01
  0.3667E+01
  0.3833E+01
  0.4000E+01
  0.4167E+01
  0.4333E+01
  0.4500E+01
  0.4667E+01
  0.4833E+01
  0.5000E+01
  0.5167E+01
  0.5333E+01
  0.5500E+01
  0.5667E+01
  0.5833E+01
  0.6000E+01
  0.6167E+01
  0.6333E+01
  0.6500E+01
  0.6667E+01
  0.6833E+01
  0.7000E+01
  0.7167E+01
  0.7333E+01
  0.7500E+01
  0.7667E+01
  0.7833E+01
  0.8000E+01
  0.8167E+01
  0.8333E+01
  0.8500E+01
  0.8667E+01
  0.8833E+01
  0.9000E+01
  0.9167E+01
  0.9333E+01
  0.9500E+01
  0.9667E+01
  0.9833E+01
  0.1000E+02
Y_COORDINATES    61 double
  0.0000E+00
  0.1667E+00
  0.3333E+00
  0.5000E+00
  0.6667E+00
  0.8333E+00
  0.1000E+01
  0.1167E+01
  0.1333E+01
  0.1500E+01
  0.1667E+01
  0.1833E+01
  0.2000E+01
  0.2167E+01
  0.2333E+01
  0.2500E+01
  0.2667E+01
  0.2833E+01
  0.3000E+01
  0.3167E+01
  0.3333E+01
  0.3500E+01
  0.3667E+01
  0.3833E+01
  0.4000E+01
  0.4167E+01
  0.4333E+01
  0.4500E+01
  0.4667E+01
  0.4833E+01
  0.5000E+01
  0.5167E+01
  0.5333E+01
  0.5500E+01
  0.5667E+01
  0.5833E+01
  0.6000E+01
  0.6167E+01
  0.6333E+01
  0.6500E+01
  0.6667E+01
  0.6833E+01
  0.7000E+01
  0.7167E+01
  0.7333E+01
  0.7500E+01
  0.7667E+01
  0.7833E+01
  0.8000E+01
  0.8167E+01
  0.8333E+01
  0.8500E+01
  0.8667E+01
  0.8833E+01
  0.9000E+01
  0.9167E+01
  0.9333E+01
  0.9500E+01
  0.9667E+01
  0.9833E+01
  0.1000E+02
Z_COORDINATES 1 double
0
CELL_DATA                 3600
FIELD FieldData 4
density 1                 3600 double
  0.3683E+01
  0.3683E+01
  0.3683E+01
  0.3683E+01
  0.3683E+01
  0.3683E+01
  0.3682E+01
  0.3679E+01
  0.3670E+01
  0.3647E+01
  0.3598E+01
  0.3519E+01
  0.3412E+01
  0.3289E+01
  0.3159E+01
  0.3029E+01
  0.2901E+01
  0.2777E+01
  0.2657E+01
  0.2542E+01
  0.2432E+01
  0.2328E+01
  0.2228E+01
  0.2133E+01
  0.2043E+01
  0.1957E+01
  0.1875E+01
  0.1797E+01
  0.1723E+01
  0.1652E+01
  0.1584E+01
  0.1519E+01
  0.1457E+01
  0.1398E+01
  0.1341E+01
  0.1287E+01
  0.1236E+01
  0.1187E+01
  0.1141E+01
  0.1097E+01
  0.1055E+01
  0.1016E+01
  0.9796E+00
  0.9478E+00
  0.9218E+00
  0.9133E+00
  0.9154E+00
  0.9318E+00
  0.9578E+00
  0.9831E+00
  0.1002E+01
  0.1008E+01
  0.1008E+01
  0.1006E+01
  0.9800E+00
  0.9746E+00
  0.1060E+01
  0.1256E+01
  0.1504E+01
  0.1482E+01
  0.3679E+01
  0.3679E+01
  0.3679E+01
  0.3679E+01
  0.3679E+01
  0.3679E+01
  0.3678E+01
  0.3675E+01
  0.3666E+01
  0.3643E+01
  0.3595E+01
  0.3516E+01
  0.3409E+01
  0.3286E+01
  0.3157E+01
  0.3026E+01
  0.2899E+01
  0.2774E+01
  0.2655E+01
  0.2540E+01
  0.2430E+01
  0.2325E+01
  0.2225E+01
  0.2130E+01
  0.2040E+01
  0.1954E+01
  0.1872E+01
  0.1794E+01
  0.1720E+01
  0.1649E+01
  0.1581E+01
  0.1516E+01
  0.1454E+01
  0.1395E+01
  0.1339E+01
  0.1285E+01
  0.1233E+01
  0.1185E+01
  0.1138E+01
  0.1094E+01
  0.1052E+01
  0.1013E+01
  0.9761E+00
  0.9440E+00
  0.9177E+00
  0.9089E+00
  0.9106E+00
  0.9256E+00
  0.9510E+00
  0.9761E+00
  0.9951E+00
  0.1003E+01
  0.1006E+01
  0.1005E+01
  0.9831E+00
  0.9759E+00
  0.1057E+01
  0.1255E+01
  0.1495E+01
  0.1479E+01
  0.3671E+01
  0.3671E+01
  0.3671E+01
  0.3671E+01
  0.3671E+01
  0.3671E+01
  0.3670E+01
  0.3667E+01
  0.3659E+01
  0.3635E+01
  0.3588E+01
  0.3509E+01
  0.3403E+01
  0.3281E+01
  0.3151E+01
  0.3021E+01
  0.2893E+01
  0.2769E+01
  0.2649E+01
  0.2534E+01
  0.2425E+01
  0.2320E+01
  0.2220E+01
  0.2125E+01
  0.2035E+01
  0.1949E+01
  0.1867E+01
  0.1789E+01
  0.1715E+01
  0.1644E+01
  0.1576E+01
  0.1511E+01
  0.1449E+01
  0.1390E+01
  0.1333E+01
  0.1279E+01
  0.1227E+01
  0.1179E+01
  0.1132E+01
  0.1087E+01
  0.1045E+01
  0.1006E+01
  0.9687E+00
  0.9363E+00
  0.9095E+00
  0.8990E+00
  0.9002E+00
  0.9135E+00
  0.9377E+00
  0.9621E+00
  0.9813E+00
  0.9946E+00
  0.1003E+01
  0.1004E+01
  0.9863E+00
  0.9772E+00
  0.1048E+01
  0.1240E+01
  0.1480E+01
  0.1474E+01
  0.3659E+01
  0.3659E+01
  0.3659E+01
  0.3659E+01
  0.3659E+01
  0.3659E+01
  0.3658E+01
  0.3655E+01
  0.3647E+01
  0.3624E+01
  0.3577E+01
  0.3500E+01
  0.3394E+01
  0.3272E+01
  0.3143E+01
  0.3013E+01
  0.2885E+01
  0.2761E+01
  0.2641E+01
  0.2526E+01
  0.2416E+01
  0.2312E+01
  0.2212E+01
  0.2117E+01
  0.2027E+01
  0.1941E+01
  0.1859E+01
  0.1781E+01
  0.1707E+01
  0.1636E+01
  0.1568E+01
  0.1503E+01
  0.1440E+01
  0.1381E+01
  0.1324E+01
  0.1270E+01
  0.1218E+01
  0.1169E+01
  0.1122E+01
  0.1077E+01
  0.1034E+01
  0.9942E+00
  0.9568E+00
  0.9237E+00
  0.8962E+00
  0.8828E+00
  0.8833E+00
  0.8942E+00
  0.9164E+00
  0.9399E+00
  0.9605E+00
  0.9796E+00
  0.9970E+00
  0.1002E+01
  0.9878E+00
  0.9733E+00
  0.1034E+01
  0.1224E+01
  0.1450E+01
  0.1458E+01
  0.3642E+01
  0.3642E+01
  0.3642E+01
  0.3642E+01
  0.3642E+01
  0.3642E+01
  0.3641E+01
  0.3638E+01
  0.3630E+01
  0.3608E+01
  0.3562E+01
  0.3486E+01
  0.3381E+01
  0.3259E+01
  0.3130E+01
  0.3001E+01
  0.2873E+01
  0.2749E+01
  0.2630E+01
  0.2515E+01
  0.2405E+01
  0.2300E+01
  0.2201E+01
  0.2106E+01
  0.2016E+01
  0.1930E+01
  0.1848E+01
  0.1770E+01
  0.1695E+01
  0.1624E+01
  0.1556E+01
  0.1491E+01
  0.1428E+01
  0.1368E+01
  0.1311E+01
  0.1256E+01
  0.1204E+01
  0.1155E+01
  0.1107E+01
  0.1061E+01
  0.1018E+01
  0.9771E+00
  0.9388E+00
  0.9047E+00
  0.8763E+00
  0.8593E+00
  0.8583E+00
  0.8669E+00
  0.8868E+00
  0.9094E+00
  0.9325E+00
  0.9588E+00
  0.9877E+00
  0.9992E+00
  0.9862E+00
  0.9610E+00
  0.1013E+01
  0.1195E+01
  0.1421E+01
  0.1443E+01
  0.3619E+01
  0.3619E+01
  0.3619E+01
  0.3619E+01
  0.3619E+01
  0.3619E+01
  0.3618E+01
  0.3616E+01
  0.3608E+01
  0.3587E+01
  0.3542E+01
  0.3467E+01
  0.3364E+01
  0.3243E+01
  0.3114E+01
  0.2985E+01
  0.2857E+01
  0.2734E+01
  0.2614E+01
  0.2499E+01
  0.2390E+01
  0.2285E+01
  0.2185E+01
  0.2091E+01
  0.2000E+01
  0.1914E+01
  0.1832E+01
  0.1754E+01
  0.1679E+01
  0.1607E+01
  0.1539E+01
  0.1473E+01
  0.1411E+01
  0.1350E+01
  0.1292E+01
  0.1237E+01
  0.1184E+01
  0.1134E+01
  0.1085E+01
  0.1039E+01
  0.9948E+00
  0.9529E+00
  0.9136E+00
  0.8783E+00
  0.8487E+00
  0.8282E+00
  0.8254E+00
  0.8319E+00
  0.8500E+00
  0.8725E+00
  0.9001E+00
  0.9367E+00
  0.9795E+00
  0.9955E+00
  0.9793E+00
  0.9392E+00
  0.9828E+00
  0.1165E+01
  0.1389E+01
  0.1440E+01
  0.3590E+01
  0.3590E+01
  0.3590E+01
  0.3590E+01
  0.3590E+01
  0.3589E+01
  0.3589E+01
  0.3587E+01
  0.3579E+01
  0.3559E+01
  0.3516E+01
  0.3442E+01
  0.3341E+01
  0.3221E+01
  0.3093E+01
  0.2964E+01
  0.2836E+01
  0.2713E+01
  0.2594E+01
  0.2479E+01
  0.2369E+01
  0.2264E+01
  0.2165E+01
  0.2070E+01
  0.1979E+01
  0.1893E+01
  0.1811E+01
  0.1732E+01
  0.1657E+01
  0.1585E+01
  0.1516E+01
  0.1450E+01
  0.1386E+01
  0.1325E+01
  0.1267E+01
  0.1211E+01
  0.1157E+01
  0.1106E+01
  0.1056E+01
  0.1009E+01
  0.9638E+00
  0.9209E+00
  0.8808E+00
  0.8445E+00
  0.8137E+00
  0.7904E+00
  0.7863E+00
  0.7914E+00
  0.8084E+00
  0.8333E+00
  0.8698E+00
  0.9207E+00
  0.9757E+00
  0.9892E+00
  0.9659E+00
  0.9086E+00
  0.9446E+00
  0.1123E+01
  0.1354E+01
  0.1431E+01
  0.3551E+01
  0.3551E+01
  0.3551E+01
  0.3551E+01
  0.3551E+01
  0.3551E+01
  0.3550E+01
  0.3548E+01
  0.3541E+01
  0.3522E+01
  0.3481E+01
  0.3409E+01
  0.3310E+01
  0.3191E+01
  0.3064E+01
  0.2935E+01
  0.2808E+01
  0.2685E+01
  0.2566E+01
  0.2451E+01
  0.2341E+01
  0.2237E+01
  0.2137E+01
  0.2041E+01
  0.1951E+01
  0.1864E+01
  0.1781E+01
  0.1702E+01
  0.1626E+01
  0.1554E+01
  0.1484E+01
  0.1417E+01
  0.1353E+01
  0.1291E+01
  0.1232E+01
  0.1175E+01
  0.1121E+01
  0.1069E+01
  0.1019E+01
  0.9711E+00
  0.9254E+00
  0.8821E+00
  0.8416E+00
  0.8048E+00
  0.7731E+00
  0.7481E+00
  0.7436E+00
  0.7485E+00
  0.7662E+00
  0.7987E+00
  0.8501E+00
  0.9183E+00
  0.9755E+00
  0.9815E+00
  0.9432E+00
  0.8676E+00
  0.8959E+00
  0.1077E+01
  0.1325E+01
  0.1415E+01
  0.3501E+01
  0.3501E+01
  0.3501E+01
  0.3501E+01
  0.3501E+01
  0.3500E+01
  0.3500E+01
  0.3498E+01
  0.3491E+01
  0.3473E+01
  0.3434E+01
  0.3366E+01
  0.3268E+01
  0.3151E+01
  0.3025E+01
  0.2897E+01
  0.2770E+01
  0.2647E+01
  0.2528E+01
  0.2414E+01
  0.2304E+01
  0.2199E+01
  0.2099E+01
  0.2003E+01
  0.1912E+01
  0.1825E+01
  0.1742E+01
  0.1662E+01
  0.1586E+01
  0.1513E+01
  0.1443E+01
  0.1376E+01
  0.1311E+01
  0.1249E+01
  0.1189E+01
  0.1132E+01
  0.1077E+01
  0.1025E+01
  0.9752E+00
  0.9273E+00
  0.8817E+00
  0.8385E+00
  0.7982E+00
  0.7615E+00
  0.7292E+00
  0.7043E+00
  0.7006E+00
  0.7066E+00
  0.7293E+00
  0.7769E+00
  0.8486E+00
  0.9282E+00
  0.9719E+00
  0.9681E+00
  0.9100E+00
  0.8170E+00
  0.8410E+00
  0.1025E+01
  0.1284E+01
  0.1384E+01
  0.3435E+01
  0.3435E+01
  0.3435E+01
  0.3435E+01
  0.3435E+01
  0.3434E+01
  0.3434E+01
  0.3432E+01
  0.3426E+01
  0.3410E+01
  0.3373E+01
  0.3307E+01
  0.3213E+01
  0.3098E+01
  0.2973E+01
  0.2846E+01
  0.2720E+01
  0.2597E+01
  0.2478E+01
  0.2364E+01
  0.2255E+01
  0.2150E+01
  0.2050E+01
  0.1954E+01
  0.1863E+01
  0.1776E+01
  0.1692E+01
  0.1613E+01
  0.1536E+01
  0.1463E+01
  0.1393E+01
  0.1325E+01
  0.1261E+01
  0.1199E+01
  0.1139E+01
  0.1083E+01
  0.1028E+01
  0.9766E+00
  0.9271E+00
  0.8799E+00
  0.8350E+00
  0.7927E+00
  0.7531E+00
  0.7171E+00
  0.6843E+00
  0.6618E+00
  0.6602E+00
  0.6698E+00
  0.7058E+00
  0.7766E+00
  0.8648E+00
  0.9430E+00
  0.9619E+00
  0.9477E+00
  0.8643E+00
  0.7592E+00
  0.7808E+00
  0.9644E+00
  0.1243E+01
  0.1378E+01
  0.3351E+01
  0.3351E+01
  0.3351E+01
  0.3351E+01
  0.3351E+01
  0.3351E+01
  0.3350E+01
  0.3349E+01
  0.3344E+01
  0.3329E+01
  0.3294E+01
  0.3232E+01
  0.3141E+01
  0.3029E+01
  0.2906E+01
  0.2780E+01
  0.2655E+01
  0.2534E+01
  0.2416E+01
  0.2302E+01
  0.2193E+01
  0.2089E+01
  0.1989E+01
  0.1894E+01
  0.1803E+01
  0.1716E+01
  0.1633E+01
  0.1554E+01
  0.1478E+01
  0.1405E+01
  0.1335E+01
  0.1269E+01
  0.1205E+01
  0.1144E+01
  0.1085E+01
  0.1029E+01
  0.9762E+00
  0.9256E+00
  0.8773E+00
  0.8314E+00
  0.7878E+00
  0.7468E+00
  0.7082E+00
  0.6730E+00
  0.6394E+00
  0.6236E+00
  0.6251E+00
  0.6450E+00
  0.7059E+00
  0.7956E+00
  0.8907E+00
  0.9472E+00
  0.9489E+00
  0.9137E+00
  0.8090E+00
  0.6972E+00
  0.7188E+00
  0.9032E+00
  0.1211E+01
  0.1383E+01
  0.3249E+01
  0.3249E+01
  0.3249E+01
  0.3249E+01
  0.3249E+01
  0.3249E+01
  0.3249E+01
  0.3248E+01
  0.3243E+01
  0.3230E+01
  0.3198E+01
  0.3140E+01
  0.3053E+01
  0.2945E+01
  0.2824E+01
  0.2700E+01
  0.2578E+01
  0.2457E+01
  0.2341E+01
  0.2228E+01
  0.2120E+01
  0.2017E+01
  0.1918E+01
  0.1824E+01
  0.1734E+01
  0.1649E+01
  0.1567E+01
  0.1488E+01
  0.1414E+01
  0.1342E+01
  0.1274E+01
  0.1208E+01
  0.1146E+01
  0.1086E+01
  0.1029E+01
  0.9751E+00
  0.9236E+00
  0.8745E+00
  0.8278E+00
  0.7835E+00
  0.7416E+00
  0.7019E+00
  0.6647E+00
  0.6296E+00
  0.5975E+00
  0.5916E+00
  0.6000E+00
  0.6451E+00
  0.7287E+00
  0.8295E+00
  0.9172E+00
  0.9406E+00
  0.9304E+00
  0.8638E+00
  0.7446E+00
  0.6354E+00
  0.6585E+00
  0.8428E+00
  0.1169E+01
  0.1377E+01
  0.3132E+01
  0.3132E+01
  0.3132E+01
  0.3132E+01
  0.3132E+01
  0.3132E+01
  0.3132E+01
  0.3131E+01
  0.3127E+01
  0.3115E+01
  0.3087E+01
  0.3033E+01
  0.2951E+01
  0.2847E+01
  0.2730E+01
  0.2609E+01
  0.2488E+01
  0.2370E+01
  0.2256E+01
  0.2145E+01
  0.2039E+01
  0.1938E+01
  0.1841E+01
  0.1748E+01
  0.1660E+01
  0.1576E+01
  0.1496E+01
  0.1420E+01
  0.1347E+01
  0.1277E+01
  0.1211E+01
  0.1147E+01
  0.1087E+01
  0.1029E+01
  0.9739E+00
  0.9216E+00
  0.8719E+00
  0.8247E+00
  0.7799E+00
  0.7373E+00
  0.6971E+00
  0.6588E+00
  0.6228E+00
  0.5860E+00
  0.5653E+00
  0.5679E+00
  0.5981E+00
  0.6704E+00
  0.7694E+00
  0.8708E+00
  0.9279E+00
  0.9300E+00
  0.8982E+00
  0.7989E+00
  0.6746E+00
  0.5798E+00
  0.6052E+00
  0.7856E+00
  0.1111E+01
  0.1362E+01
  0.3004E+01
  0.3004E+01
  0.3004E+01
  0.3004E+01
  0.3004E+01
  0.3004E+01
  0.3004E+01
  0.3003E+01
  0.2999E+01
  0.2989E+01
  0.2964E+01
  0.2916E+01
  0.2839E+01
  0.2739E+01
  0.2627E+01
  0.2509E+01
  0.2392E+01
  0.2276E+01
  0.2165E+01
  0.2057E+01
  0.1953E+01
  0.1854E+01
  0.1760E+01
  0.1670E+01
  0.1584E+01
  0.1502E+01
  0.1425E+01
  0.1350E+01
  0.1280E+01
  0.1212E+01
  0.1148E+01
  0.1087E+01
  0.1029E+01
  0.9729E+00
  0.9201E+00
  0.8699E+00
  0.8222E+00
  0.7770E+00
  0.7340E+00
  0.6933E+00
  0.6545E+00
  0.6177E+00
  0.5808E+00
  0.5487E+00
  0.5453E+00
  0.5649E+00
  0.6244E+00
  0.7159E+00
  0.8198E+00
  0.9052E+00
  0.9248E+00
  0.9127E+00
  0.8408E+00
  0.7210E+00
  0.6033E+00
  0.5371E+00
  0.5647E+00
  0.7324E+00
  0.1044E+01
  0.1368E+01
  0.2870E+01
  0.2870E+01
  0.2870E+01
  0.2870E+01
  0.2870E+01
  0.2870E+01
  0.2870E+01
  0.2869E+01
  0.2866E+01
  0.2858E+01
  0.2836E+01
  0.2792E+01
  0.2721E+01
  0.2627E+01
  0.2519E+01
  0.2405E+01
  0.2292E+01
  0.2180E+01
  0.2071E+01
  0.1967E+01
  0.1866E+01
  0.1770E+01
  0.1678E+01
  0.1591E+01
  0.1508E+01
  0.1429E+01
  0.1354E+01
  0.1282E+01
  0.1214E+01
  0.1149E+01
  0.1088E+01
  0.1029E+01
  0.9726E+00
  0.9193E+00
  0.8686E+00
  0.8205E+00
  0.7749E+00
  0.7315E+00
  0.6905E+00
  0.6513E+00
  0.6139E+00
  0.5769E+00
  0.5404E+00
  0.5310E+00
  0.5420E+00
  0.5913E+00
  0.6730E+00
  0.7737E+00
  0.8715E+00
  0.9156E+00
  0.9127E+00
  0.8667E+00
  0.7562E+00
  0.6344E+00
  0.5414E+00
  0.5155E+00
  0.5397E+00
  0.6794E+00
  0.9689E+00
  0.1378E+01
  0.2735E+01
  0.2735E+01
  0.2735E+01
  0.2735E+01
  0.2735E+01
  0.2735E+01
  0.2735E+01
  0.2734E+01
  0.2732E+01
  0.2725E+01
  0.2706E+01
  0.2667E+01
  0.2602E+01
  0.2513E+01
  0.2410E+01
  0.2301E+01
  0.2191E+01
  0.2083E+01
  0.1978E+01
  0.1877E+01
  0.1780E+01
  0.1687E+01
  0.1599E+01
  0.1514E+01
  0.1434E+01
  0.1358E+01
  0.1286E+01
  0.1217E+01
  0.1151E+01
  0.1089E+01
  0.1030E+01
  0.9731E+00
  0.9193E+00
  0.8681E+00
  0.8196E+00
  0.7736E+00
  0.7299E+00
  0.6885E+00
  0.6491E+00
  0.6113E+00
  0.5743E+00
  0.5354E+00
  0.5209E+00
  0.5284E+00
  0.5678E+00
  0.6391E+00
  0.7341E+00
  0.8368E+00
  0.9029E+00
  0.9075E+00
  0.8768E+00
  0.7766E+00
  0.6541E+00
  0.5545E+00
  0.5092E+00
  0.5087E+00
  0.5297E+00
  0.6295E+00
  0.8741E+00
  0.1368E+01
  0.2603E+01
  0.2603E+01
  0.2603E+01
  0.2603E+01
  0.2603E+01
  0.2603E+01
  0.2603E+01
  0.2602E+01
  0.2600E+01
  0.2594E+01
  0.2578E+01
  0.2544E+01
  0.2484E+01
  0.2402E+01
  0.2304E+01
  0.2199E+01
  0.2094E+01
  0.1990E+01
  0.1888E+01
  0.1790E+01
  0.1697E+01
  0.1607E+01
  0.1522E+01
  0.1440E+01
  0.1363E+01
  0.1290E+01
  0.1220E+01
  0.1154E+01
  0.1091E+01
  0.1031E+01
  0.9744E+00
  0.9201E+00
  0.8686E+00
  0.8196E+00
  0.7731E+00
  0.7291E+00
  0.6874E+00
  0.6477E+00
  0.6095E+00
  0.5725E+00
  0.5331E+00
  0.5157E+00
  0.5210E+00
  0.5540E+00
  0.6171E+00
  0.7026E+00
  0.8042E+00
  0.8850E+00
  0.8985E+00
  0.8759E+00
  0.7816E+00
  0.6609E+00
  0.5590E+00
  0.5062E+00
  0.5026E+00
  0.5096E+00
  0.5324E+00
  0.5931E+00
  0.7667E+00
  0.1327E+01
  0.2475E+01
  0.2475E+01
  0.2475E+01
  0.2475E+01
  0.2475E+01
  0.2475E+01
  0.2475E+01
  0.2475E+01
  0.2473E+01
  0.2468E+01
  0.2454E+01
  0.2424E+01
  0.2370E+01
  0.2294E+01
  0.2201E+01
  0.2101E+01
  0.2000E+01
  0.1899E+01
  0.1802E+01
  0.1707E+01
  0.1617E+01
  0.1530E+01
  0.1448E+01
  0.1370E+01
  0.1296E+01
  0.1225E+01
  0.1158E+01
  0.1095E+01
  0.1034E+01
  0.9766E+00
  0.9219E+00
  0.8699E+00
  0.8205E+00
  0.7735E+00
  0.7290E+00
  0.6870E+00
  0.6470E+00
  0.6085E+00
  0.5712E+00
  0.5316E+00
  0.5129E+00
  0.5168E+00
  0.5448E+00
  0.6030E+00
  0.6840E+00
  0.7833E+00
  0.8682E+00
  0.8878E+00
  0.8682E+00
  0.7762E+00
  0.6558E+00
  0.5559E+00
  0.5030E+00
  0.4979E+00
  0.5036E+00
  0.5204E+00
  0.5432E+00
  0.5764E+00
  0.6699E+00
  0.1171E+01
  0.2353E+01
  0.2353E+01
  0.2353E+01
  0.2353E+01
  0.2353E+01
  0.2353E+01
  0.2353E+01
  0.2353E+01
  0.2351E+01
  0.2347E+01
  0.2336E+01
  0.2309E+01
  0.2261E+01
  0.2190E+01
  0.2103E+01
  0.2007E+01
  0.1910E+01
  0.1813E+01
  0.1719E+01
  0.1628E+01
  0.1541E+01
  0.1458E+01
  0.1378E+01
  0.1303E+01
  0.1231E+01
  0.1164E+01
  0.1099E+01
  0.1038E+01
  0.9798E+00
  0.9246E+00
  0.8721E+00
  0.8222E+00
  0.7748E+00
  0.7299E+00
  0.6874E+00
  0.6470E+00
  0.6082E+00
  0.5709E+00
  0.5311E+00
  0.5116E+00
  0.5147E+00
  0.5387E+00
  0.5885E+00
  0.6604E+00
  0.7552E+00
  0.8512E+00
  0.8781E+00
  0.8606E+00
  0.7692E+00
  0.6455E+00
  0.5476E+00
  0.4996E+00
  0.4958E+00
  0.5002E+00
  0.5149E+00
  0.5351E+00
  0.5572E+00
  0.5708E+00
  0.5729E+00
  0.8272E+00
  0.2236E+01
  0.2236E+01
  0.2236E+01
  0.2236E+01
  0.2236E+01
  0.2236E+01
  0.2236E+01
  0.2236E+01
  0.2235E+01
  0.2232E+01
  0.2222E+01
  0.2199E+01
  0.2156E+01
  0.2091E+01
  0.2009E+01
  0.1918E+01
  0.1824E+01
  0.1731E+01
  0.1640E+01
  0.1553E+01
  0.1469E+01
  0.1388E+01
  0.1312E+01
  0.1239E+01
  0.1170E+01
  0.1105E+01
  0.1043E+01
  0.9841E+00
  0.9283E+00
  0.8752E+00
  0.8248E+00
  0.7769E+00
  0.7315E+00
  0.6885E+00
  0.6476E+00
  0.6085E+00
  0.5706E+00
  0.5307E+00
  0.5108E+00
  0.5135E+00
  0.5375E+00
  0.5878E+00
  0.6533E+00
  0.7369E+00
  0.8249E+00
  0.8641E+00
  0.8513E+00
  0.7639E+00
  0.6368E+00
  0.5400E+00
  0.4983E+00
  0.4955E+00
  0.4992E+00
  0.5127E+00
  0.5306E+00
  0.5498E+00
  0.5612E+00
  0.5526E+00
  0.4742E+00
  0.5566E+00
  0.2125E+01
  0.2125E+01
  0.2125E+01
  0.2125E+01
  0.2125E+01
  0.2125E+01
  0.2125E+01
  0.2125E+01
  0.2124E+01
  0.2122E+01
  0.2114E+01
  0.2094E+01
  0.2055E+01
  0.1996E+01
  0.1919E+01
  0.1832E+01
  0.1742E+01
  0.1653E+01
  0.1565E+01
  0.1481E+01
  0.1400E+01
  0.1322E+01
  0.1249E+01
  0.1179E+01
  0.1112E+01
  0.1049E+01
  0.9896E+00
  0.9330E+00
  0.8793E+00
  0.8283E+00
  0.7799E+00
  0.7340E+00
  0.6905E+00
  0.6491E+00
  0.6095E+00
  0.5711E+00
  0.5299E+00
  0.5109E+00
  0.5132E+00
  0.5328E+00
  0.5812E+00
  0.6514E+00
  0.7385E+00
  0.8266E+00
  0.8620E+00
  0.8478E+00
  0.7615E+00
  0.6344E+00
  0.5385E+00
  0.5010E+00
  0.4975E+00
  0.5011E+00
  0.5130E+00
  0.5286E+00
  0.5454E+00
  0.5558E+00
  0.5515E+00
  0.5024E+00
  0.3913E+00
  0.3905E+00
  0.2020E+01
  0.2020E+01
  0.2020E+01
  0.2020E+01
  0.2020E+01
  0.2020E+01
  0.2020E+01
  0.2019E+01
  0.2019E+01
  0.2017E+01
  0.2010E+01
  0.1993E+01
  0.1959E+01
  0.1905E+01
  0.1833E+01
  0.1750E+01
  0.1664E+01
  0.1578E+01
  0.1494E+01
  0.1412E+01
  0.1334E+01
  0.1259E+01
  0.1188E+01
  0.1121E+01
  0.1057E+01
  0.9963E+00
  0.9389E+00
  0.8844E+00
  0.8328E+00
  0.7838E+00
  0.7373E+00
  0.6933E+00
  0.6513E+00
  0.6113E+00
  0.5724E+00
  0.5310E+00
  0.5125E+00
  0.5146E+00
  0.5354E+00
  0.5776E+00
  0.6359E+00
  0.7205E+00
  0.8271E+00
  0.8669E+00
  0.8541E+00
  0.7697E+00
  0.6392E+00
  0.5433E+00
  0.5077E+00
  0.5029E+00
  0.5064E+00
  0.5159E+00
  0.5285E+00
  0.5427E+00
  0.5523E+00
  0.5494E+00
  0.5069E+00
  0.4190E+00
  0.3268E+00
  0.2904E+00
  0.1919E+01
  0.1919E+01
  0.1919E+01
  0.1919E+01
  0.1919E+01
  0.1919E+01
  0.1919E+01
  0.1919E+01
  0.1918E+01
  0.1917E+01
  0.1911E+01
  0.1897E+01
  0.1867E+01
  0.1818E+01
  0.1750E+01
  0.1672E+01
  0.1590E+01
  0.1507E+01
  0.1426E+01
  0.1348E+01
  0.1272E+01
  0.1200E+01
  0.1131E+01
  0.1066E+01
  0.1005E+01
  0.9462E+00
  0.8909E+00
  0.8385E+00
  0.7888E+00
  0.7417E+00
  0.6970E+00
  0.6545E+00
  0.6139E+00
  0.5744E+00
  0.5317E+00
  0.5140E+00
  0.5160E+00
  0.5376E+00
  0.5859E+00
  0.6448E+00
  0.7142E+00
  0.7985E+00
  0.8579E+00
  0.8547E+00
  0.7809E+00
  0.6484E+00
  0.5517E+00
  0.5169E+00
  0.5114E+00
  0.5145E+00
  0.5212E+00
  0.5304E+00
  0.5417E+00
  0.5502E+00
  0.5476E+00
  0.5089E+00
  0.4255E+00
  0.3414E+00
  0.2742E+00
  0.2380E+00
  0.1824E+01
  0.1824E+01
  0.1824E+01
  0.1824E+01
  0.1824E+01
  0.1824E+01
  0.1824E+01
  0.1824E+01
  0.1824E+01
  0.1822E+01
  0.1818E+01
  0.1806E+01
  0.1780E+01
  0.1735E+01
  0.1673E+01
  0.1599E+01
  0.1520E+01
  0.1440E+01
  0.1362E+01
  0.1286E+01
  0.1214E+01
  0.1144E+01
  0.1078E+01
  0.1015E+01
  0.9555E+00
  0.8991E+00
  0.8458E+00
  0.7953E+00
  0.7475E+00
  0.7020E+00
  0.6588E+00
  0.6176E+00
  0.5771E+00
  0.5347E+00
  0.5170E+00
  0.5185E+00
  0.5383E+00
  0.5847E+00
  0.6497E+00
  0.7301E+00
  0.8153E+00
  0.8547E+00
  0.8490E+00
  0.7806E+00
  0.6539E+00
  0.5582E+00
  0.5246E+00
  0.5202E+00
  0.5230E+00
  0.5277E+00
  0.5337E+00
  0.5424E+00
  0.5494E+00
  0.5464E+00
  0.5088E+00
  0.4276E+00
  0.3466E+00
  0.2818E+00
  0.2364E+00
  0.2128E+00
  0.1735E+01
  0.1735E+01
  0.1735E+01
  0.1735E+01
  0.1735E+01
  0.1735E+01
  0.1735E+01
  0.1735E+01
  0.1735E+01
  0.1734E+01
  0.1730E+01
  0.1720E+01
  0.1697E+01
  0.1657E+01
  0.1599E+01
  0.1530E+01
  0.1454E+01
  0.1378E+01
  0.1303E+01
  0.1229E+01
  0.1159E+01
  0.1092E+01
  0.1028E+01
  0.9673E+00
  0.9098E+00
  0.8554E+00
  0.8039E+00
  0.7550E+00
  0.7087E+00
  0.6647E+00
  0.6227E+00
  0.5806E+00
  0.5400E+00
  0.5215E+00
  0.5226E+00
  0.5450E+00
  0.5900E+00
  0.6485E+00
  0.7287E+00
  0.8204E+00
  0.8614E+00
  0.8519E+00
  0.7812E+00
  0.6563E+00
  0.5606E+00
  0.5293E+00
  0.5266E+00
  0.5292E+00
  0.5332E+00
  0.5376E+00
  0.5444E+00
  0.5498E+00
  0.5460E+00
  0.5086E+00
  0.4282E+00
  0.3483E+00
  0.2855E+00
  0.2405E+00
  0.2137E+00
  0.2031E+00
  0.1654E+01
  0.1654E+01
  0.1654E+01
  0.1654E+01
  0.1654E+01
  0.1654E+01
  0.1654E+01
  0.1654E+01
  0.1654E+01
  0.1653E+01
  0.1650E+01
  0.1641E+01
  0.1622E+01
  0.1586E+01
  0.1533E+01
  0.1467E+01
  0.1395E+01
  0.1322E+01
  0.1249E+01
  0.1178E+01
  0.1110E+01
  0.1045E+01
  0.9832E+00
  0.9244E+00
  0.8686E+00
  0.8159E+00
  0.7658E+00
  0.7184E+00
  0.6733E+00
  0.6296E+00
  0.5862E+00
  0.5492E+00
  0.5298E+00
  0.5303E+00
  0.5521E+00
  0.6040E+00
  0.6658E+00
  0.7343E+00
  0.8156E+00
  0.8573E+00
  0.8512E+00
  0.7842E+00
  0.6587E+00
  0.5636E+00
  0.5322E+00
  0.5302E+00
  0.5324E+00
  0.5360E+00
  0.5401E+00
  0.5463E+00
  0.5511E+00
  0.5467E+00
  0.5085E+00
  0.4287E+00
  0.3493E+00
  0.2872E+00
  0.2431E+00
  0.2158E+00
  0.2037E+00
  0.2005E+00
  0.1585E+01
  0.1585E+01
  0.1585E+01
  0.1585E+01
  0.1585E+01
  0.1585E+01
  0.1585E+01
  0.1585E+01
  0.1585E+01
  0.1584E+01
  0.1582E+01
  0.1575E+01
  0.1558E+01
  0.1525E+01
  0.1476E+01
  0.1414E+01
  0.1345E+01
  0.1274E+01
  0.1204E+01
  0.1136E+01
  0.1070E+01
  0.1006E+01
  0.9460E+00
  0.8885E+00
  0.8338E+00
  0.7819E+00
  0.7325E+00
  0.6853E+00
  0.6396E+00
  0.5978E+00
  0.5653E+00
  0.5444E+00
  0.5443E+00
  0.5668E+00
  0.6156E+00
  0.6833E+00
  0.7645E+00
  0.8321E+00
  0.8585E+00
  0.8476E+00
  0.7768E+00
  0.6555E+00
  0.5627E+00
  0.5330E+00
  0.5321E+00
  0.5339E+00
  0.5371E+00
  0.5411E+00
  0.5472E+00
  0.5520E+00
  0.5477E+00
  0.5089E+00
  0.4287E+00
  0.3494E+00
  0.2876E+00
  0.2443E+00
  0.2172E+00
  0.2044E+00
  0.2007E+00
  0.2001E+00
  0.1532E+01
  0.1532E+01
  0.1532E+01
  0.1532E+01
  0.1532E+01
  0.1532E+01
  0.1532E+01
  0.1532E+01
  0.1532E+01
  0.1531E+01
  0.1529E+01
  0.1524E+01
  0.1509E+01
  0.1481E+01
  0.1437E+01
  0.1379E+01
  0.1312E+01
  0.1243E+01
  0.1174E+01
  0.1107E+01
  0.1041E+01
  0.9787E+00
  0.9186E+00
  0.8612E+00
  0.8066E+00
  0.7548E+00
  0.7066E+00
  0.6624E+00
  0.6238E+00
  0.5912E+00
  0.5668E+00
  0.5662E+00
  0.5898E+00
  0.6400E+00
  0.7013E+00
  0.7787E+00
  0.8575E+00
  0.8719E+00
  0.8496E+00
  0.7665E+00
  0.6476E+00
  0.5594E+00
  0.5313E+00
  0.5318E+00
  0.5348E+00
  0.5377E+00
  0.5417E+00
  0.5478E+00
  0.5523E+00
  0.5481E+00
  0.5095E+00
  0.4288E+00
  0.3493E+00
  0.2876E+00
  0.2445E+00
  0.2178E+00
  0.2049E+00
  0.2008E+00
  0.2001E+00
  0.2000E+00
  0.1519E+01
  0.1519E+01
  0.1519E+01
  0.1519E+01
  0.1519E+01
  0.1519E+01
  0.1519E+01
  0.1519E+01
  0.1519E+01
  0.1519E+01
  0.1517E+01
  0.1513E+01
  0.1500E+01
  0.1474E+01
  0.1432E+01
  0.1375E+01
  0.1309E+01
  0.1240E+01
  0.1171E+01
  0.1103E+01
  0.1037E+01
  0.9733E+00
  0.9121E+00
  0.8541E+00
  0.7997E+00
  0.7493E+00
  0.7026E+00
  0.6607E+00
  0.6252E+00
  0.5990E+00
  0.5989E+00
  0.6226E+00
  0.6730E+00
  0.7347E+00
  0.8032E+00
  0.8643E+00
  0.8774E+00
  0.8575E+00
  0.7635E+00
  0.6382E+00
  0.5509E+00
  0.5252E+00
  0.5277E+00
  0.5335E+00
  0.5379E+00
  0.5422E+00
  0.5484E+00
  0.5525E+00
  0.5481E+00
  0.5092E+00
  0.4287E+00
  0.3492E+00
  0.2875E+00
  0.2444E+00
  0.2179E+00
  0.2051E+00
  0.2009E+00
  0.2001E+00
  0.2000E+00
  0.2000E+00
  0.1522E+01
  0.1522E+01
  0.1522E+01
  0.1522E+01
  0.1522E+01
  0.1522E+01
  0.1522E+01
  0.1522E+01
  0.1522E+01
  0.1522E+01
  0.1521E+01
  0.1517E+01
  0.1505E+01
  0.1482E+01
  0.1442E+01
  0.1387E+01
  0.1322E+01
  0.1252E+01
  0.1182E+01
  0.1111E+01
  0.1043E+01
  0.9778E+00
  0.9157E+00
  0.8574E+00
  0.8032E+00
  0.7531E+00
  0.7080E+00
  0.6700E+00
  0.6451E+00
  0.6461E+00
  0.6692E+00
  0.7156E+00
  0.7736E+00
  0.8382E+00
  0.8851E+00
  0.8848E+00
  0.8603E+00
  0.7651E+00
  0.6351E+00
  0.5422E+00
  0.5158E+00
  0.5199E+00
  0.5290E+00
  0.5363E+00
  0.5418E+00
  0.5485E+00
  0.5529E+00
  0.5483E+00
  0.5088E+00
  0.4281E+00
  0.3487E+00
  0.2871E+00
  0.2442E+00
  0.2177E+00
  0.2051E+00
  0.2009E+00
  0.2001E+00
  0.2000E+00
  0.2000E+00
  0.2000E+00
  0.1542E+01
  0.1542E+01
  0.1542E+01
  0.1542E+01
  0.1542E+01
  0.1542E+01
  0.1542E+01
  0.1542E+01
  0.1542E+01
  0.1542E+01
  0.1541E+01
  0.1537E+01
  0.1528E+01
  0.1506E+01
  0.1469E+01
  0.1414E+01
  0.1349E+01
  0.1277E+01
  0.1204E+01
  0.1132E+01
  0.1062E+01
  0.9942E+00
  0.9307E+00
  0.8719E+00
  0.8179E+00
  0.7697E+00
  0.7304E+00
  0.7058E+00
  0.7070E+00
  0.7279E+00
  0.7696E+00
  0.8199E+00
  0.8715E+00
  0.9033E+00
  0.8977E+00
  0.8680E+00
  0.7686E+00
  0.6376E+00
  0.5388E+00
  0.5072E+00
  0.5108E+00
  0.5216E+00
  0.5321E+00
  0.5399E+00
  0.5477E+00
  0.5528E+00
  0.5486E+00
  0.5092E+00
  0.4277E+00
  0.3482E+00
  0.2867E+00
  0.2438E+00
  0.2175E+00
  0.2050E+00
  0.2009E+00
  0.2001E+00
  0.2000E+00
  0.2000E+00
  0.2000E+00
  0.2000E+00
  0.1568E+01
  0.1568E+01
  0.1568E+01
  0.1568E+01
  0.1568E+01
  0.1568E+01
  0.1568E+01
  0.1568E+01
  0.1568E+01
  0.1568E+01
  0.1567E+01
  0.1564E+01
  0.1556E+01
  0.1537E+01
  0.1500E+01
  0.1446E+01
  0.1378E+01
  0.1304E+01
  0.1228E+01
  0.1153E+01
  0.1081E+01
  0.1012E+01
  0.9491E+00
  0.8915E+00
  0.8412E+00
  0.8015E+00
  0.7774E+00
  0.7774E+00
  0.7948E+00
  0.8298E+00
  0.8704E+00
  0.9048E+00
  0.9165E+00
  0.9080E+00
  0.8758E+00
  0.7772E+00
  0.6462E+00
  0.5411E+00
  0.5013E+00
  0.5032E+00
  0.5134E+00
  0.5264E+00
  0.5367E+00
  0.5457E+00
  0.5520E+00
  0.5484E+00
  0.5095E+00
  0.4283E+00
  0.3482E+00
  0.2863E+00
  0.2436E+00
  0.2174E+00
  0.2049E+00
  0.2009E+00
  0.2001E+00
  0.2000E+00
  0.2000E+00
  0.2000E+00
  0.2000E+00
  0.2000E+00
  0.1590E+01
  0.1590E+01
  0.1590E+01
  0.1590E+01
  0.1590E+01
  0.1590E+01
  0.1590E+01
  0.1590E+01
  0.1590E+01
  0.1590E+01
  0.1589E+01
  0.1586E+01
  0.1579E+01
  0.1561E+01
  0.1526E+01
  0.1471E+01
  0.1402E+01
  0.1325E+01
  0.1246E+01
  0.1169E+01
  0.1096E+01
  0.1029E+01
  0.9690E+00
  0.9172E+00
  0.8767E+00
  0.8521E+00
  0.8497E+00
  0.8642E+00
  0.8907E+00
  0.9166E+00
  0.9282E+00
  0.9240E+00
  0.9134E+00
  0.8761E+00
  0.7819E+00
  0.6563E+00
  0.5483E+00
  0.4992E+00
  0.4985E+00
  0.5062E+00
  0.5207E+00
  0.5333E+00
  0.5436E+00
  0.5505E+00
  0.5475E+00
  0.5097E+00
  0.4286E+00
  0.3486E+00
  0.2867E+00
  0.2435E+00
  0.2173E+00
  0.2049E+00
  0.2009E+00
  0.2001E+00
  0.2000E+00
  0.2000E+00
  0.2000E+00
  0.2000E+00
  0.2000E+00
  0.2000E+00
  0.1599E+01
  0.1599E+01
  0.1599E+01
  0.1599E+01
  0.1599E+01
  0.1599E+01
  0.1599E+01
  0.1599E+01
  0.1599E+01
  0.1599E+01
  0.1598E+01
  0.1595E+01
  0.1588E+01
  0.1569E+01
  0.1533E+01
  0.1479E+01
  0.1409E+01
  0.1332E+01
  0.1254E+01
  0.1179E+01
  0.1110E+01
  0.1048E+01
  0.9946E+00
  0.9535E+00
  0.9273E+00
  0.9206E+00
  0.9285E+00
  0.9435E+00
  0.9470E+00
  0.9398E+00
  0.9301E+00
  0.9127E+00
  0.8665E+00
  0.7764E+00
  0.6608E+00
  0.5560E+00
  0.4999E+00
  0.4961E+00
  0.5015E+00
  0.5161E+00
  0.5304E+00
  0.5421E+00
  0.5495E+00
  0.5465E+00
  0.5091E+00
  0.4287E+00
  0.3491E+00
  0.2871E+00
  0.2438E+00
  0.2173E+00
  0.2049E+00
  0.2009E+00
  0.2001E+00
  0.2000E+00
  0.2000E+00
  0.2000E+00
  0.2000E+00
  0.2000E+00
  0.2000E+00
  0.2000E+00
  0.1599E+01
  0.1599E+01
  0.1599E+01
  0.1599E+01
  0.1599E+01
  0.1599E+01
  0.1599E+01
  0.1599E+01
  0.1599E+01
  0.1599E+01
  0.1598E+01
  0.1595E+01
  0.1587E+01
  0.1568E+01
  0.1532E+01
  0.1477E+01
  0.1408E+01
  0.1331E+01
  0.1255E+01
  0.1185E+01
  0.1123E+01
  0.1070E+01
  0.1028E+01
  0.9995E+00
  0.9845E+00
  0.9792E+00
  0.9733E+00
  0.9622E+00
  0.9489E+00
  0.9301E+00
  0.8979E+00
  0.8408E+00
  0.7563E+00
  0.6543E+00
  0.5592E+00
  0.5030E+00
  0.4956E+00
  0.4994E+00
  0.5133E+00
  0.5288E+00
  0.5418E+00
  0.5493E+00
  0.5461E+00
  0.5089E+00
  0.4288E+00
  0.3493E+00
  0.2874E+00
  0.2441E+00
  0.2174E+00
  0.2049E+00
  0.2009E+00
  0.2001E+00
  0.2000E+00
  0.2000E+00
  0.2000E+00
  0.2000E+00
  0.2000E+00
  0.2000E+00
  0.2000E+00
  0.2000E+00
  0.1587E+01
  0.1587E+01
  0.1587E+01
  0.1587E+01
  0.1587E+01
  0.1587E+01
  0.1587E+01
  0.1587E+01
  0.1587E+01
  0.1586E+01
  0.1585E+01
  0.1581E+01
  0.1571E+01
  0.1550E+01
  0.1514E+01
  0.1459E+01
  0.1392E+01
  0.1320E+01
  0.1250E+01
  0.1185E+01
  0.1128E+01
  0.1082E+01
  0.1047E+01
  0.1021E+01
  0.1002E+01
  0.9870E+00
  0.9702E+00
  0.9485E+00
  0.9138E+00
  0.8640E+00
  0.7993E+00
  0.7209E+00
  0.6340E+00
  0.5543E+00
  0.5064E+00
  0.4979E+00
  0.5005E+00
  0.5123E+00
  0.5283E+00
  0.5427E+00
  0.5504E+00
  0.5465E+00
  0.5089E+00
  0.4288E+00
  0.3494E+00
  0.2876E+00
  0.2444E+00
  0.2177E+00
  0.2050E+00
  0.2009E+00
  0.2001E+00
  0.2000E+00
  0.2000E+00
  0.2000E+00
  0.2000E+00
  0.2000E+00
  0.2000E+00
  0.2000E+00
  0.2000E+00
  0.2000E+00
  0.1521E+01
  0.1521E+01
  0.1521E+01
  0.1521E+01