# vtk DataFile Version 3.0
vtk output
ASCII
DATASET RECTILINEAR_GRID
DIMENSIONS          61          61 1
X_COORDINATES    61 double
  0.0000E+00
  0.1667E+00
  0.3333E+00
  0.5000E+00
  0.6667E+00
  0.8333E+00
  0.1000E+01
  0.1167E+01
  0.1333E+01
  0.1500E+01
  0.1667E+01
  0.1833E+01
  0.2000E+01
  0.2167E+01
  0.2333E+01
  0.2500E+01
  0.2667E+01
  0.2833E+01
  0.3000E+01
  0.3167E+01
  0.3333E+01
  0.3500E+01
  0.3667E+01
  0.3833E+01
  0.4000E+01
  0.4167E+01
  0.4333E+01
  0.4500E+01
  0.4667E+01
  0.4833E+01
  0.5000E+01
  0.5167E+01
  0.5333E+01
  0.5500E+01
  0.5667E+01
  0.5833E+01
  0.6000E+01
  0.6167E+01
  0.6333E+01
  0.6500E+01
  0.6667E+01
  0.6833E+01
  0.7000E+01
  0.7167E+01
  0.7333E+01
  0.7500E+01
  0.7667E+01
  0.7833E+01
  0.8000E+01
  0.8167E+01
  0.8333E+01
  0.8500E+01
  0.8667E+01
  0.8833E+01
  0.9000E+01
  0.9167E+01
  0.9333E+01
  0.9500E+01
  0.9667E+01
  0.9833E+01
  0.1000E+02
Y_COORDINATES    61 double
  0.0000E+00
  0.1667E+00
  0.3333E+00
  0.5000E+00
  0.6667E+00
  0.8333E+00
  0.1000E+01
  0.1167E+01
  0.1333E+01
  0.1500E+01
  0.1667E+01
  0.1833E+01
  0.2000E+01
  0.2167E+01
  0.2333E+01
  0.2500E+01
  0.2667E+01
  0.2833E+01
  0.3000E+01
  0.3167E+01
  0.3333E+01
  0.3500E+01
  0.3667E+01
  0.3833E+01
  0.4000E+01
  0.4167E+01
  0.4333E+01
  0.4500E+01
  0.4667E+01
  0.4833E+01
  0.5000E+01
  0.5167E+01
  0.5333E+01
  0.5500E+01
  0.5667E+01
  0.5833E+01
  0.6000E+01
  0.6167E+01
  0.6333E+01
  0.6500E+01
  0.6667E+01
  0.6833E+01
  0.7000E+01
  0.7167E+01
  0.7333E+01
  0.7500E+01
  0.7667E+01
  0.7833E+01
  0.8000E+01
  0.8167E+01
  0.8333E+01
  0.8500E+01
  0.8667E+01
  0.8833E+01
  0.9000E+01
  0.9167E+01
  0.9333E+01
  0.9500E+01
  0.9667E+01
  0.9833E+01
  0.1000E+02
Z_COORDINATES 1 double
0
CELL_DATA                 3600
FIELD FieldData 4
density 1                 3600 double
  0.7583E+01
  0.7583E+01
  0.7583E+01
  0.7583E+01
  0.7583E+01
  0.7583E+01
  0.7583E+01
  0.7583E+01
  0.7583E+01
  0.7583E+01
  0.7583E+01
  0.7583E+01
  0.7583E+01
  0.7583E+01
  0.7582E+01
  0.7577E+01
  0.7554E+01
  0.7481E+01
  0.7310E+01
  0.7016E+01
  0.6626E+01
  0.6194E+01
  0.5759E+01
  0.5337E+01
  0.4940E+01
  0.4571E+01
  0.4228E+01
  0.3910E+01
  0.3615E+01
  0.3341E+01
  0.3084E+01
  0.2842E+01
  0.2614E+01
  0.2402E+01
  0.2209E+01
  0.2037E+01
  0.1888E+01
  0.1767E+01
  0.1672E+01
  0.1595E+01
  0.1548E+01
  0.1525E+01
  0.1490E+01
  0.1391E+01
  0.1212E+01
  0.1002E+01
  0.8279E+00
  0.7335E+00
  0.7223E+00
  0.7240E+00
  0.6880E+00
  0.4817E+00
  0.2898E+00
  0.2121E+00
  0.2001E+00
  0.2000E+00
  0.2000E+00
  0.2000E+00
  0.2000E+00
  0.2000E+00
  0.7348E+01
  0.7348E+01
  0.7348E+01
  0.7348E+01
  0.7348E+01
  0.7348E+01
  0.7348E+01
  0.7348E+01
  0.7348E+01
  0.7348E+01
  0.7348E+01
  0.7348E+01
  0.7348E+01
  0.7348E+01
  0.7347E+01
  0.7342E+01
  0.7321E+01
  0.7251E+01
  0.7087E+01
  0.6803E+01
  0.6426E+01
  0.6009E+01
  0.5587E+01
  0.5180E+01
  0.4796E+01
  0.4440E+01
  0.4110E+01
  0.3804E+01
  0.3520E+01
  0.3257E+01
  0.3011E+01
  0.2778E+01
  0.2559E+01
  0.2356E+01
  0.2170E+01
  0.2005E+01
  0.1862E+01
  0.1746E+01
  0.1654E+01
  0.1580E+01
  0.1535E+01
  0.1513E+01
  0.1477E+01
  0.1377E+01
  0.1197E+01
  0.9874E+00
  0.8147E+00
  0.7227E+00
  0.7132E+00
  0.7159E+00
  0.6797E+00
  0.4751E+00
  0.2872E+00
  0.2115E+00
  0.2001E+00
  0.2000E+00
  0.2000E+00
  0.2000E+00
  0.2000E+00
  0.2000E+00
  0.6952E+01
  0.6952E+01
  0.6952E+01
  0.6952E+01
  0.6952E+01
  0.6952E+01
  0.6952E+01
  0.6952E+01
  0.6952E+01
  0.6952E+01
  0.6952E+01
  0.6952E+01
  0.6952E+01
  0.6952E+01
  0.6951E+01
  0.6946E+01
  0.6927E+01
  0.6863E+01
  0.6710E+01
  0.6444E+01
  0.6088E+01
  0.5693E+01
  0.5293E+01
  0.4907E+01
  0.4544E+01
  0.4208E+01
  0.3897E+01
  0.3610E+01
  0.3344E+01
  0.3098E+01
  0.2867E+01
  0.2651E+01
  0.2447E+01
  0.2257E+01
  0.2085E+01
  0.1931E+01
  0.1799E+01
  0.1692E+01
  0.1608E+01
  0.1540E+01
  0.1499E+01
  0.1478E+01
  0.1441E+01
  0.1341E+01
  0.1163E+01
  0.9587E+00
  0.7915E+00
  0.7055E+00
  0.6980E+00
  0.7029E+00
  0.6657E+00
  0.4631E+00
  0.2824E+00
  0.2104E+00
  0.2001E+00
  0.2000E+00
  0.2000E+00
  0.2000E+00
  0.2000E+00
  0.2000E+00
  0.6493E+01
  0.6493E+01
  0.6493E+01
  0.6493E+01
  0.6493E+01
  0.6493E+01
  0.6493E+01
  0.6493E+01
  0.6493E+01
  0.6493E+01
  0.6493E+01
  0.6493E+01
  0.6493E+01
  0.6493E+01
  0.6492E+01
  0.6488E+01
  0.6470E+01
  0.6413E+01
  0.6275E+01
  0.6029E+01
  0.5696E+01
  0.5325E+01
  0.4949E+01
  0.4586E+01
  0.4245E+01
  0.3929E+01
  0.3637E+01
  0.3368E+01
  0.3121E+01
  0.2891E+01
  0.2678E+01
  0.2477E+01
  0.2289E+01
  0.2114E+01
  0.1956E+01
  0.1815E+01
  0.1695E+01
  0.1599E+01
  0.1525E+01
  0.1463E+01
  0.1426E+01
  0.1408E+01
  0.1373E+01
  0.1277E+01
  0.1111E+01
  0.9197E+00
  0.7633E+00
  0.6860E+00
  0.6817E+00
  0.6882E+00
  0.6468E+00
  0.4450E+00
  0.2749E+00
  0.2087E+00
  0.2001E+00
  0.2000E+00
  0.2000E+00
  0.2000E+00
  0.2000E+00
  0.2000E+00
  0.6024E+01
  0.6024E+01
  0.6024E+01
  0.6024E+01
  0.6024E+01
  0.6024E+01
  0.6024E+01
  0.6024E+01
  0.6024E+01
  0.6024E+01
  0.6024E+01
  0.6024E+01
  0.6024E+01
  0.6024E+01
  0.6023E+01
  0.6020E+01
  0.6005E+01
  0.5954E+01
  0.5830E+01
  0.5605E+01
  0.5297E+01
  0.4950E+01
  0.4597E+01
  0.4256E+01
  0.3936E+01
  0.3639E+01
  0.3366E+01
  0.3114E+01
  0.2883E+01
  0.2669E+01
  0.2470E+01
  0.2284E+01
  0.2110E+01
  0.1949E+01
  0.1803E+01
  0.1674E+01
  0.1565E+01
  0.1478E+01
  0.1411E+01
  0.1354E+01
  0.1321E+01
  0.1306E+01
  0.1276E+01
  0.1193E+01
  0.1046E+01
  0.8757E+00
  0.7322E+00
  0.6669E+00
  0.6657E+00
  0.6733E+00
  0.6236E+00
  0.4215E+00
  0.2652E+00
  0.2067E+00
  0.2001E+00
  0.2000E+00
  0.2000E+00
  0.2000E+00
  0.2000E+00
  0.2000E+00
  0.5569E+01
  0.5569E+01
  0.5569E+01
  0.5569E+01
  0.5569E+01
  0.5569E+01
  0.5569E+01
  0.5569E+01
  0.5569E+01
  0.5569E+01
  0.5569E+01
  0.5569E+01
  0.5569E+01
  0.5569E+01
  0.5568E+01
  0.5566E+01
  0.5553E+01
  0.5509E+01
  0.5399E+01
  0.5195E+01
  0.4910E+01
  0.4586E+01
  0.4256E+01
  0.3936E+01
  0.3635E+01
  0.3357E+01
  0.3101E+01
  0.2865E+01
  0.2649E+01
  0.2449E+01
  0.2264E+01
  0.2090E+01
  0.1928E+01
  0.1779E+01
  0.1645E+01
  0.1527E+01
  0.1426E+01
  0.1346E+01
  0.1283E+01
  0.1230E+01
  0.1199E+01
  0.1188E+01
  0.1168E+01
  0.1102E+01
  0.9806E+00
  0.8310E+00
  0.7003E+00
  0.6483E+00
  0.6502E+00
  0.6577E+00
  0.5959E+00
  0.3940E+00
  0.2538E+00
  0.2046E+00
  0.2000E+00
  0.2000E+00
  0.2000E+00
  0.2000E+00
  0.2000E+00
  0.2000E+00
  0.5140E+01
  0.5140E+01
  0.5140E+01
  0.5140E+01
  0.5140E+01
  0.5140E+01
  0.5140E+01
  0.5140E+01
  0.5140E+01
  0.5140E+01
  0.5140E+01
  0.5140E+01
  0.5140E+01
  0.5140E+01
  0.5140E+01
  0.5138E+01
  0.5127E+01
  0.5089E+01
  0.4992E+01
  0.4808E+01
  0.4547E+01
  0.4245E+01
  0.3935E+01
  0.3635E+01
  0.3352E+01
  0.3091E+01
  0.2851E+01
  0.2630E+01
  0.2427E+01
  0.2240E+01
  0.2067E+01
  0.1905E+01
  0.1755E+01
  0.1616E+01
  0.1492E+01
  0.1382E+01
  0.1289E+01
  0.1215E+01
  0.1156E+01
  0.1103E+01
  0.1076E+01
  0.1071E+01
  0.1064E+01
  0.1022E+01
  0.9201E+00
  0.7873E+00
  0.6694E+00
  0.6304E+00
  0.6370E+00
  0.6415E+00
  0.5615E+00
  0.3629E+00
  0.2415E+00
  0.2029E+00
  0.2000E+00
  0.2000E+00
  0.2000E+00
  0.2000E+00
  0.2000E+00
  0.2000E+00
  0.4742E+01
  0.4742E+01
  0.4742E+01
  0.4742E+01
  0.4742E+01
  0.4742E+01
  0.4742E+01
  0.4742E+01
  0.4742E+01
  0.4742E+01
  0.4742E+01
  0.4742E+01
  0.4742E+01
  0.4742E+01
  0.4742E+01
  0.4740E+01
  0.4731E+01
  0.4699E+01
  0.4615E+01
  0.4450E+01
  0.4210E+01
  0.3929E+01
  0.3639E+01
  0.3357E+01
  0.3091E+01
  0.2846E+01
  0.2620E+01
  0.2413E+01
  0.2223E+01
  0.2048E+01
  0.1886E+01
  0.1735E+01
  0.1594E+01
  0.1465E+01
  0.1349E+01
  0.1248E+01
  0.1162E+01
  0.1092E+01
  0.1035E+01
  0.9815E+00
  0.9640E+00
  0.9661E+00
  0.9709E+00
  0.9573E+00
  0.8710E+00
  0.7427E+00
  0.6363E+00
  0.6140E+00
  0.6257E+00
  0.6251E+00
  0.5156E+00
  0.3300E+00
  0.2292E+00
  0.2015E+00
  0.2000E+00
  0.2000E+00
  0.2000E+00
  0.2000E+00
  0.2000E+00
  0.2000E+00
  0.4373E+01
  0.4373E+01
  0.4373E+01
  0.4373E+01
  0.4373E+01
  0.4373E+01
  0.4373E+01
  0.4373E+01
  0.4373E+01
  0.4373E+01
  0.4373E+01
  0.4373E+01
  0.4373E+01
  0.4373E+01
  0.4373E+01
  0.4371E+01
  0.4364E+01
  0.4337E+01
  0.4264E+01
  0.4118E+01
  0.3898E+01
  0.3637E+01
  0.3366E+01
  0.3101E+01
  0.2851E+01
  0.2620E+01
  0.2408E+01
  0.2213E+01
  0.2035E+01
  0.1871E+01
  0.1720E+01
  0.1578E+01
  0.1447E+01
  0.1327E+01
  0.1220E+01
  0.1125E+01
  0.1045E+01
  0.9800E+00
  0.9241E+00
  0.8754E+00
  0.8670E+00
  0.8814E+00
  0.9065E+00
  0.9016E+00
  0.8261E+00
  0.6956E+00
  0.6077E+00
  0.5997E+00
  0.6155E+00
  0.6018E+00
  0.4620E+00
  0.2981E+00
  0.2183E+00
  0.2007E+00
  0.2000E+00
  0.2000E+00
  0.2000E+00
  0.2000E+00
  0.2000E+00
  0.2000E+00
  0.4031E+01
  0.4031E+01
  0.4031E+01
  0.4031E+01
  0.4031E+01
  0.4031E+01
  0.4031E+01
  0.4031E+01
  0.4031E+01
  0.4031E+01
  0.4031E+01
  0.4031E+01
  0.4031E+01
  0.4031E+01
  0.4031E+01
  0.4030E+01
  0.4024E+01
  0.4002E+01
  0.3940E+01
  0.3810E+01
  0.3610E+01
  0.3368E+01
  0.3114E+01
  0.2865E+01
  0.2630E+01
  0.2413E+01
  0.2213E+01
  0.2031E+01
  0.1864E+01
  0.1710E+01
  0.1569E+01
  0.1436E+01
  0.1314E+01
  0.1202E+01
  0.1102E+01
  0.1014E+01
  0.9396E+00
  0.8792E+00
  0.8224E+00
  0.7888E+00
  0.7903E+00
  0.8276E+00
  0.8709E+00
  0.8629E+00
  0.7730E+00
  0.6437E+00
  0.5847E+00
  0.5896E+00
  0.6060E+00
  0.5661E+00
  0.4031E+00
  0.2686E+00
  0.2100E+00
  0.2003E+00
  0.2000E+00
  0.2000E+00
  0.2000E+00
  0.2000E+00
  0.2000E+00
  0.2000E+00
  0.3715E+01
  0.3715E+01
  0.3715E+01
  0.3715E+01
  0.3715E+01
  0.3715E+01
  0.3715E+01
  0.3715E+01
  0.3715E+01
  0.3715E+01
  0.3715E+01
  0.3715E+01
  0.3715E+01
  0.3715E+01
  0.3715E+01
  0.3714E+01
  0.3710E+01
  0.3692E+01
  0.3639E+01
  0.3525E+01
  0.3344E+01
  0.3120E+01
  0.2882E+01
  0.2648E+01
  0.2427E+01
  0.2223E+01
  0.2035E+01
  0.1864E+01
  0.1707E+01
  0.1564E+01
  0.1431E+01
  0.1307E+01
  0.1193E+01
  0.1089E+01
  0.9962E+00
  0.9145E+00
  0.8454E+00
  0.7875E+00
  0.7347E+00
  0.7242E+00
  0.7388E+00
  0.8136E+00
  0.8503E+00
  0.8223E+00
  0.7055E+00
  0.5917E+00
  0.5693E+00
  0.5846E+00
  0.5899E+00
  0.5109E+00
  0.3480E+00
  0.2433E+00
  0.2046E+00
  0.2001E+00
  0.2000E+00
  0.2000E+00
  0.2000E+00
  0.2000E+00
  0.2000E+00
  0.2000E+00
  0.3423E+01
  0.3423E+01
  0.3423E+01
  0.3423E+01
  0.3423E+01
  0.3423E+01
  0.3423E+01
  0.3423E+01
  0.3423E+01
  0.3423E+01
  0.3423E+01
  0.3423E+01
  0.3423E+01
  0.3423E+01
  0.3423E+01
  0.3422E+01
  0.3418E+01
  0.3404E+01
  0.3360E+01
  0.3261E+01
  0.3098E+01
  0.2891E+01
  0.2669E+01
  0.2449E+01
  0.2240E+01
  0.2048E+01
  0.1871E+01
  0.1710E+01
  0.1564E+01
  0.1429E+01
  0.1305E+01
  0.1189E+01
  0.1083E+01
  0.9860E+00
  0.8997E+00
  0.8237E+00
  0.7603E+00
  0.7024E+00
  0.6723E+00
  0.6777E+00
  0.7374E+00
  0.8217E+00
  0.8279E+00
  0.7558E+00
  0.6263E+00
  0.5559E+00
  0.5587E+00
  0.5790E+00
  0.5626E+00
  0.4395E+00
  0.3001E+00
  0.2236E+00
  0.2017E+00
  0.2000E+00
  0.2000E+00
  0.2000E+00
  0.2000E+00
  0.2000E+00
  0.2000E+00
  0.2000E+00
  0.3150E+01
  0.3150E+01
  0.3150E+01
  0.3150E+01
  0.3150E+01
  0.3150E+01
  0.3150E+01
  0.3150E+01
  0.3150E+01
  0.3150E+01
  0.3150E+01
  0.3150E+01
  0.3150E+01
  0.3150E+01
  0.3150E+01
  0.3150E+01
  0.3147E+01
  0.3135E+01
  0.3099E+01
  0.3013E+01
  0.2868E+01
  0.2677E+01
  0.2470E+01
  0.2263E+01
  0.2067E+01
  0.1886E+01
  0.1720E+01
  0.1568E+01
  0.1431E+01
  0.1305E+01
  0.1188E+01
  0.1081E+01
  0.9813E+00
  0.8915E+00
  0.8107E+00
  0.7411E+00
  0.6792E+00
  0.6344E+00
  0.6336E+00
  0.6769E+00
  0.7750E+00
  0.8138E+00
  0.7804E+00
  0.6594E+00
  0.5545E+00
  0.5388E+00
  0.5559E+00
  0.5663E+00
  0.5100E+00
  0.3685E+00
  0.2613E+00
  0.2107E+00
  0.2005E+00
  0.2000E+00
  0.2000E+00
  0.2000E+00
  0.2000E+00
  0.2000E+00
  0.2000E+00
  0.2000E+00
  0.2895E+01
  0.2895E+01
  0.2895E+01
  0.2895E+01
  0.2895E+01
  0.2895E+01
  0.2895E+01
  0.2895E+01
  0.2895E+01
  0.2895E+01
  0.2895E+01
  0.2895E+01
  0.2895E+01
  0.2895E+01
  0.2895E+01
  0.2894E+01
  0.2892E+01
  0.2883E+01
  0.2853E+01
  0.2780E+01
  0.2651E+01
  0.2477E+01
  0.2284E+01
  0.2090E+01
  0.1905E+01
  0.1734E+01
  0.1578E+01
  0.1436E+01
  0.1307E+01
  0.1189E+01
  0.1081E+01
  0.9800E+00
  0.8878E+00
  0.8038E+00
  0.7295E+00
  0.6618E+00
  0.6068E+00
  0.6026E+00
  0.6350E+00
  0.7272E+00
  0.7911E+00
  0.7795E+00
  0.6847E+00
  0.5643E+00
  0.5202E+00
  0.5332E+00
  0.5560E+00
  0.5383E+00
  0.4312E+00
  0.3087E+00
  0.2324E+00
  0.2039E+00
  0.2001E+00
  0.2000E+00
  0.2000E+00
  0.2000E+00
  0.2000E+00
  0.2000E+00
  0.2000E+00
  0.2000E+00
  0.2656E+01
  0.2656E+01
  0.2656E+01
  0.2656E+01
  0.2656E+01
  0.2656E+01
  0.2656E+01
  0.2656E+01
  0.2656E+01
  0.2656E+01
  0.2656E+01
  0.2656E+01
  0.2656E+01
  0.2656E+01
  0.2656E+01
  0.2655E+01
  0.2654E+01
  0.2647E+01
  0.2622E+01
  0.2561E+01
  0.2447E+01
  0.2288E+01
  0.2109E+01
  0.1928E+01
  0.1755E+01
  0.1594E+01
  0.1447E+01
  0.1314E+01
  0.1193E+01
  0.1083E+01
  0.9813E+00
  0.8878E+00
  0.8016E+00
  0.7242E+00
  0.6508E+00
  0.5888E+00
  0.5837E+00
  0.6078E+00
  0.6870E+00
  0.7699E+00
  0.7730E+00
  0.7002E+00
  0.5754E+00
  0.5113E+00
  0.5156E+00
  0.5399E+00
  0.5399E+00
  0.4748E+00
  0.3546E+00
  0.2630E+00
  0.2140E+00
  0.2011E+00
  0.2000E+00
  0.2000E+00
  0.2000E+00
  0.2000E+00
  0.2000E+00
  0.2000E+00
  0.2000E+00
  0.2000E+00
  0.2435E+01
  0.2435E+01
  0.2435E+01
  0.2435E+01
  0.2435E+01
  0.2435E+01
  0.2435E+01
  0.2435E+01
  0.2435E+01
  0.2435E+01
  0.2435E+01
  0.2435E+01
  0.2435E+01
  0.2435E+01
  0.2435E+01
  0.2434E+01
  0.2433E+01
  0.2428E+01
  0.2408E+01
  0.2357E+01
  0.2257E+01
  0.2114E+01
  0.1948E+01
  0.1779E+01
  0.1616E+01
  0.1465E+01
  0.1327E+01
  0.1202E+01
  0.1089E+01
  0.9860E+00
  0.8915E+00
  0.8038E+00
  0.7242E+00
  0.6479E+00
  0.5811E+00
  0.5742E+00
  0.5923E+00
  0.6621E+00
  0.7532E+00
  0.7669E+00
  0.7134E+00
  0.5901E+00
  0.5114E+00
  0.5074E+00
  0.5253E+00
  0.5351E+00
  0.4941E+00
  0.3900E+00
  0.2941E+00
  0.2310E+00
  0.2048E+00
  0.2002E+00
  0.2000E+00
  0.2000E+00
  0.2000E+00
  0.2000E+00
  0.2000E+00
  0.2000E+00
  0.2000E+00
  0.2000E+00
  0.2234E+01
  0.2234E+01
  0.2234E+01
  0.2234E+01
  0.2234E+01
  0.2234E+01
  0.2234E+01
  0.2234E+01
  0.2234E+01
  0.2234E+01
  0.2234E+01
  0.2234E+01
  0.2234E+01
  0.2234E+01
  0.2234E+01
  0.2234E+01
  0.2233E+01
  0.2229E+01
  0.2214E+01
  0.2171E+01
  0.2084E+01
  0.1955E+01
  0.1802E+01
  0.1644E+01
  0.1491E+01
  0.1349E+01
  0.1219E+01
  0.1102E+01
  0.9960E+00
  0.8996E+00
  0.8108E+00
  0.7296E+00
  0.6506E+00
  0.5819E+00
  0.5702E+00
  0.5833E+00
  0.6438E+00
  0.7423E+00
  0.7680E+00
  0.7301E+00
  0.6129E+00
  0.5216E+00
  0.5077E+00
  0.5189E+00
  0.5292E+00
  0.5025E+00
  0.4133E+00
  0.3194E+00
  0.2502E+00
  0.2121E+00
  0.2012E+00
  0.2000E+00
  0.2000E+00
  0.2000E+00
  0.2000E+00
  0.2000E+00
  0.2000E+00
  0.2000E+00
  0.2000E+00
  0.2000E+00
  0.2056E+01
  0.2056E+01
  0.2056E+01
  0.2056E+01
  0.2056E+01
  0.2056E+01
  0.2056E+01
  0.2056E+01
  0.2056E+01
  0.2056E+01
  0.2056E+01
  0.2056E+01
  0.2056E+01
  0.2056E+01
  0.2056E+01
  0.2056E+01
  0.2055E+01
  0.2052E+01
  0.2040E+01
  0.2005E+01
  0.1931E+01
  0.1815E+01
  0.1674E+01
  0.1526E+01
  0.1382E+01
  0.1248E+01
  0.1125E+01
  0.1014E+01
  0.9143E+00
  0.8236E+00
  0.7410E+00
  0.6615E+00
  0.5902E+00
  0.5730E+00
  0.5840E+00
  0.6270E+00
  0.7172E+00
  0.7662E+00
  0.7462E+00
  0.6410E+00
  0.5396E+00
  0.5155E+00
  0.5216E+00
  0.5284E+00
  0.5076E+00
  0.4272E+00
  0.3372E+00
  0.2669E+00
  0.2219E+00
  0.2036E+00
  0.2002E+00
  0.2000E+00
  0.2000E+00
  0.2000E+00
  0.2000E+00
  0.2000E+00
  0.2000E+00
  0.2000E+00
  0.2000E+00
  0.2000E+00
  0.1903E+01
  0.1903E+01
  0.1903E+01
  0.1903E+01
  0.1903E+01
  0.1903E+01
  0.1903E+01
  0.1903E+01
  0.1903E+01
  0.1903E+01
  0.1903E+01
  0.1903E+01
  0.1903E+01
  0.1903E+01
  0.1903E+01
  0.1903E+01
  0.1902E+01
  0.1900E+01
  0.1891E+01
  0.1862E+01
  0.1799E+01
  0.1695E+01
  0.1565E+01
  0.1426E+01
  0.1289E+01
  0.1161E+01
  0.1045E+01
  0.9394E+00
  0.8453E+00
  0.7602E+00
  0.6789E+00
  0.6082E+00
  0.5820E+00
  0.5935E+00
  0.6452E+00
  0.7185E+00
  0.7601E+00
  0.7471E+00
  0.6596E+00
  0.5570E+00
  0.5257E+00
  0.5278E+00
  0.5311E+00
  0.5116E+00
  0.4353E+00
  0.3480E+00
  0.2789E+00
  0.2313E+00
  0.2072E+00
  0.2007E+00
  0.2000E+00
  0.2000E+00
  0.2000E+00
  0.2000E+00
  0.2000E+00
  0.2000E+00
  0.2000E+00
  0.2000E+00
  0.2000E+00
  0.2000E+00
  0.1778E+01
  0.1778E+01
  0.1778E+01
  0.1778E+01
  0.1778E+01
  0.1778E+01
  0.1778E+01
  0.1778E+01
  0.1778E+01
  0.1778E+01
  0.1778E+01
  0.1778E+01
  0.1778E+01
  0.1778E+01
  0.1778E+01
  0.1778E+01
  0.1778E+01
  0.1776E+01
  0.1769E+01
  0.1746E+01
  0.1692E+01
  0.1599E+01
  0.1478E+01
  0.1346E+01
  0.1215E+01
  0.1092E+01
  0.9798E+00
  0.8791E+00
  0.7874E+00
  0.7018E+00
  0.6348E+00
  0.6010E+00
  0.6098E+00
  0.6600E+00
  0.7401E+00
  0.7679E+00
  0.7482E+00
  0.6622E+00
  0.5654E+00
  0.5303E+00
  0.5314E+00
  0.5335E+00
  0.5143E+00
  0.4404E+00
  0.3549E+00
  0.2865E+00
  0.2386E+00
  0.2113E+00
  0.2017E+00
  0.2001E+00
  0.2000E+00
  0.2000E+00
  0.2000E+00
  0.2000E+00
  0.2000E+00
  0.2000E+00
  0.2000E+00
  0.2000E+00
  0.2000E+00
  0.2000E+00
  0.1680E+01
  0.1680E+01
  0.1680E+01
  0.1680E+01
  0.1680E+01
  0.1680E+01
  0.1680E+01
  0.1680E+01
  0.1680E+01
  0.1680E+01
  0.1680E+01
  0.1680E+01
  0.1680E+01
  0.1680E+01
  0.1680E+01
  0.1680E+01
  0.1680E+01
  0.1678E+01
  0.1673E+01
  0.1654E+01
  0.1608E+01
  0.1524E+01
  0.1410E+01
  0.1283E+01
  0.1155E+01
  0.1035E+01
  0.9238E+00
  0.8222E+00
  0.7349E+00
  0.6727E+00
  0.6321E+00
  0.6371E+00
  0.6878E+00
  0.7519E+00
  0.7650E+00
  0.7450E+00
  0.6587E+00
  0.5668E+00
  0.5316E+00
  0.5318E+00
  0.5334E+00
  0.5145E+00
  0.4417E+00
  0.3584E+00
  0.2914E+00
  0.2435E+00
  0.2147E+00
  0.2029E+00
  0.2003E+00
  0.2000E+00
  0.2000E+00
  0.2000E+00
  0.2000E+00
  0.2000E+00
  0.2000E+00
  0.2000E+00
  0.2000E+00
  0.2000E+00
  0.2000E+00
  0.2000E+00
  0.1601E+01
  0.1601E+01
  0.1601E+01
  0.1601E+01
  0.1601E+01
  0.1601E+01
  0.1601E+01
  0.1601E+01
  0.1601E+01
  0.1601E+01
  0.1601E+01
  0.1601E+01
  0.1601E+01
  0.1601E+01
  0.1601E+01
  0.1601E+01
  0.1601E+01
  0.1600E+01
  0.1596E+01
  0.1581E+01
  0.1540E+01
  0.1463E+01
  0.1354E+01
  0.1230E+01
  0.1103E+01
  0.9814E+00
  0.8754E+00
  0.7889E+00
  0.7233E+00
  0.6764E+00
  0.6784E+00
  0.7231E+00
  0.7713E+00
  0.7679E+00
  0.7293E+00
  0.6403E+00
  0.5601E+00
  0.5327E+00
  0.5336E+00
  0.5326E+00
  0.5112E+00
  0.4408E+00
  0.3588E+00
  0.2936E+00
  0.2467E+00
  0.2172E+00
  0.2040E+00
  0.2005E+00
  0.2000E+00
  0.2000E+00
  0.2000E+00
  0.2000E+00
  0.2000E+00
  0.2000E+00
  0.2000E+00
  0.2000E+00
  0.2000E+00
  0.2000E+00
  0.2000E+00
  0.2000E+00
  0.1553E+01
  0.1553E+01
  0.1553E+01
  0.1553E+01
  0.1553E+01
  0.1553E+01
  0.1553E+01
  0.1553E+01
  0.1553E+01
  0.1553E+01
  0.1553E+01
  0.1553E+01
  0.1553E+01
  0.1553E+01
  0.1553E+01
  0.1553E+01
  0.1553E+01
  0.1552E+01
  0.1548E+01
  0.1535E+01
  0.1499E+01
  0.1426E+01
  0.1321E+01
  0.1199E+01
  0.1076E+01
  0.9639E+00
  0.8670E+00
  0.7901E+00
  0.7387E+00
  0.7398E+00
  0.7736E+00
  0.7919E+00
  0.7752E+00
  0.7149E+00
  0.6143E+00
  0.5411E+00
  0.5254E+00
  0.5332E+00
  0.5361E+00
  0.5134E+00
  0.4381E+00
  0.3579E+00
  0.2940E+00
  0.2484E+00
  0.2190E+00
  0.2049E+00
  0.2007E+00
  0.2001E+00
  0.2000E+00
  0.2000E+00
  0.2000E+00
  0.2000E+00
  0.2000E+00
  0.2000E+00
  0.2000E+00
  0.2000E+00
  0.2000E+00
  0.2000E+00
  0.2000E+00
  0.2000E+00
  0.1530E+01
  0.1530E+01
  0.1530E+01
  0.1530E+01
  0.1530E+01
  0.1530E+01
  0.1530E+01
  0.1530E+01
  0.1530E+01
  0.1530E+01
  0.1530E+01
  0.1530E+01
  0.1530E+01
  0.1530E+01
  0.1530E+01
  0.1530E+01
  0.1530E+01
  0.1529E+01
  0.1525E+01
  0.1513E+01
  0.1478E+01
  0.1408E+01
  0.1306E+01
  0.1188E+01
  0.1071E+01
  0.9660E+00
  0.8816E+00
  0.8274E+00
  0.8142E+00
  0.8216E+00
  0.8109E+00
  0.7811E+00
  0.6999E+00
  0.5932E+00
  0.5225E+00
  0.5144E+00
  0.5255E+00
  0.5347E+00
  0.5161E+00
  0.4424E+00
  0.3584E+00
  0.2936E+00
  0.2487E+00
  0.2201E+00
  0.2056E+00
  0.2009E+00
  0.2001E+00
  0.2000E+00
  0.2000E+00
  0.2000E+00
  0.2000E+00
  0.2000E+00
  0.2000E+00
  0.2000E+00
  0.2000E+00
  0.2000E+00
  0.2000E+00
  0.2000E+00
  0.2000E+00
  0.2000E+00
  0.1496E+01
  0.1496E+01
  0.1496E+01
  0.1496E+01
  0.1496E+01
  0.1496E+01
  0.1496E+01
  0.1496E+01
  0.1496E+01
  0.1496E+01
  0.1496E+01
  0.1496E+01
  0.1496E+01
  0.1496E+01
  0.1496E+01
  0.1496E+01
  0.1496E+01
  0.1495E+01
  0.1491E+01
  0.1477E+01
  0.1441E+01
  0.1373E+01
  0.1276E+01
  0.1168E+01
  0.1064E+01
  0.9714E+00
  0.9066E+00
  0.8708E+00
  0.8495E+00
  0.8281E+00
  0.7799E+00
  0.6823E+00
  0.5753E+00
  0.5127E+00
  0.5082E+00
  0.5184E+00
  0.5293E+00
  0.5132E+00
  0.4424E+00
  0.3593E+00
  0.2941E+00
  0.2487E+00
  0.2204E+00
  0.2060E+00
  0.2011E+00
  0.2001E+00
  0.2000E+00
  0.2000E+00
  0.2000E+00
  0.2000E+00
  0.2000E+00
  0.2000E+00
  0.2000E+00
  0.2000E+00
  0.2000E+00
  0.2000E+00
  0.2000E+00
  0.2000E+00
  0.2000E+00
  0.2000E+00
  0.1400E+01
  0.1400E+01
  0.1400E+01
  0.1400E+01
  0.1400E+01
  0.1400E+01
  0.1400E+01
  0.1400E+01
  0.1400E+01
  0.1400E+01
  0.1400E+01
  0.1400E+01
  0.1400E+01
  0.1400E+01
  0.1400E+01
  0.1400E+01
  0.1399E+01
  0.1398E+01
  0.1393E+01
  0.1377E+01
  0.1341E+01
  0.1277E+01
  0.1192E+01
  0.1102E+01
  0.1021E+01
  0.9569E+00
  0.9018E+00
  0.8626E+00
  0.8220E+00
  0.7552E+00
  0.6602E+00
  0.5618E+00
  0.5107E+00
  0.5083E+00
  0.5183E+00
  0.5271E+00
  0.5097E+00
  0.4399E+00
  0.3583E+00
  0.2937E+00
  0.2483E+00
  0.2200E+00
  0.2060E+00
  0.2012E+00
  0.2001E+00
  0.2000E+00
  0.2000E+00
  0.2000E+00
  0.2000E+00
  0.2000E+00
  0.2000E+00
  0.2000E+00
  0.2000E+00
  0.2000E+00
  0.2000E+00
  0.2000E+00
  0.2000E+00
  0.2000E+00
  0.2000E+00
  0.2000E+00
  0.1225E+01
  0.1225E+01
  0.1225E+01
  0.1225E+01
  0.1225E+01
  0.1225E+01
  0.1225E+01
  0.1225E+01
  0.1225E+01
  0.1225E+01
  0.1225E+01
  0.1225E+01
  0.1225E+01
  0.1225E+01
  0.1225E+01
  0.1224E+01
  0.1224E+01
  0.1222E+01
  0.1215E+01
  0.1198E+01
  0.1163E+01
  0.1111E+01
  0.1046E+01
  0.9803E+00
  0.9199E+00
  0.8711E+00
  0.8260E+00
  0.7724E+00
  0.7054E+00
  0.6259E+00
  0.5548E+00
  0.5221E+00
  0.5155E+00
  0.5260E+00
  0.5292E+00
  0.5077E+00
  0.4346E+00
  0.3546E+00
  0.2913E+00
  0.2466E+00
  0.2189E+00
  0.2055E+00
  0.2011E+00
  0.2001E+00
  0.2000E+00
  0.2000E+00
  0.2000E+00
  0.2000E+00
  0.2000E+00
  0.2000E+00
  0.2000E+00
  0.2000E+00
  0.2000E+00
  0.2000E+00
  0.2000E+00
  0.2000E+00
  0.2000E+00
  0.2000E+00
  0.2000E+00
  0.2000E+00
  0.1018E+01
  0.1018E+01
  0.1018E+01
  0.1018E+01
  0.1018E+01
  0.1018E+01
  0.1018E+01
  0.1018E+01
  0.1018E+01
  0.1018E+01
  0.1018E+01
  0.1018E+01
  0.1018E+01
  0.1018E+01
  0.1018E+01
  0.1018E+01
  0.1017E+01
  0.1014E+01
  0.1006E+01
  0.9881E+00
  0.9585E+00
  0.9194E+00
  0.8755E+00
  0.8307E+00
  0.7870E+00
  0.7426E+00
  0.6953E+00
  0.6430E+00
  0.5920E+00
  0.5554E+00
  0.5386E+00
  0.5333E+00
  0.5391E+00
  0.5341E+00
  0.5038E+00
  0.4274E+00
  0.3480E+00
  0.2866E+00
  0.2435E+00
  0.2172E+00
  0.2049E+00
  0.2009E+00
  0.2001E+00
  0.2000E+00
  0.2000E+00
  0.2000E+00
  0.2000E+00
  0.2000E+00
  0.2000E+00
  0.2000E+00
  0.2000E+00
  0.2000E+00
  0.2000E+00
  0.2000E+00
  0.2000E+00
  0.2000E+00
  0.2000E+00
  0.2000E+00
  0.2000E+00
  0.2000E+00
  0.8463E+00
  0.8463E+00
  0.8463E+00
  0.8463E+00
  0.8463E+00
  0.8463E+00
  0.8463E+00
  0.8463E+00
  0.8463E+00
  0.8463E+00
  0.8463E+00
  0.8463E+00
  0.8463E+00
  0.8463E+00
  0.8462E+00
  0.8460E+00
  0.8450E+00
  0.8415E+00
  0.8326E+00
  0.8158E+00
  0.7916E+00
  0.7632E+00
  0.7321E+00
  0.7002E+00
  0.6692E+00
  0.6363E+00
  0.6074E+00
  0.5849E+00
  0.5694E+00
  0.5584E+00
  0.5568E+00
  0.5540E+00
  0.5404E+00
  0.4956E+00
  0.4143E+00
  0.3372E+00
  0.2790E+00
  0.2387E+00
  0.2148E+00
  0.2040E+00
  0.2007E+00
  0.2001E+00
  0.2000E+00
  0.2000E+00
  0.2000E+00
  0.2000E+00
  0.2000E+00
  0.2000E+00
  0.2000E+00
  0.2000E+00
  0.2000E+00
  0.2000E+00
  0.2000E+00
  0.2000E+00
  0.2000E+00
  0.2000E+00
  0.2000E+00
  0.2000E+00
  0.2000E+00
  0.2000E+00
  0.7536E+00
  0.7536E+00
  0.7536E+00
  0.7536E+00
  0.7536E+00
  0.7536E+00
  0.7536E+00
  0.7536E+00
  0.7536E+00
  0.7536E+00
  0.7536E+00
  0.7536E+00
  0.7536E+00
  0.7536E+00
  0.7535E+00
  0.7532E+00
  0.7520E+00
  0.7481E+00
  0.7390E+00
  0.7241E+00
  0.7057E+00
  0.6860E+00
  0.6668E+00
  0.6482E+00
  0.6304E+00
  0.6141E+00
  0.5994E+00
  0.5898E+00
  0.5846E+00
  0.5790E+00
  0.5654E+00
  0.5377E+00
  0.4735E+00
  0.3909E+00
  0.3195E+00
  0.2669E+00
  0.2313E+00
  0.2113E+00
  0.2029E+00
  0.2005E+00
  0.2001E+00
  0.2000E+00
  0.2000E+00
  0.2000E+00
  0.2000E+00
  0.2000E+00
  0.2000E+00
  0.2000E+00
  0.2000E+00
  0.2000E+00
  0.2000E+00
  0.2000E+00
  0.2000E+00
  0.2000E+00
  0.2000E+00
  0.2000E+00
  0.2000E+00
  0.2000E+00
  0.2000E+00
  0.2000E+00
  0.7427E+00
  0.7427E+00
  0.7427E+00
  0.7427E+00
  0.7427E+00
  0.7427E+00
  0.7427E+00
  0.7427E+00
  0.7427E+00
  0.7427E+00
  0.7427E+00
  0.7427E+00
  0.7427E+00
  0.7427E+00
  0.7426E+00
  0.7423E+00
  0.7409E+00
  0.7367E+00
  0.7281E+00
  0.7147E+00
  0.6984E+00
  0.6818E+00
  0.6657E+00
  0.6502E+00
  0.6370E+00
  0.6258E+00
  0.6159E+00
  0.6060E+00
  0.5903E+00
  0.5631E+00
  0.5094E+00
  0.4309E+00
  0.3544E+00
  0.2940E+00
  0.2502E+00
  0.2219E+00
  0.2072E+00
  0.2017E+00
  0.2003E+00
  0.2000E+00
  0.2000E+00
  0.2000E+00
  0.2000E+00
  0.2000E+00
  0.2000E+00
  0.2000E+00
  0.2000E+00
  0.2000E+00
  0.2000E+00
  0.2000E+00
  0.2000E+00
  0.2000E+00
  0.2000E+00
  0.2000E+00
  0.2000E+00
  0.2000E+00
  0.2000E+00
  0.2000E+00
  0.2000E+00
  0.2000E+00
  0.7438E+00
  0.7438E+00
  0.7438E+00
  0.7438E+00
  0.7438E+00
  0.7438E+00
  0.7438E+00
  0.7438E+00
  0.7438E+00
  0.7438E+00
  0.7438E+00
  0.7438E+00
  0.7438E+00
  0.7438E+00
  0.7438E+00
  0.7434E+00
  0.7420E+00
  0.7379E+00
  0.7297E+00
  0.7175E+00
  0.7034E+00
  0.6883E+00
  0.6733E+00
  0.6577E+00
  0.6415E+00
  0.6251E+00
  0.6022E+00
  0.5659E+00
  0.5106E+00
  0.4397E+00
  0.3682E+00
  0.3086E+00
  0.2629E+00
  0.2310E+00
  0.2121E+00
  0.2036E+00
  0.2007E+00
  0.2001E+00
  0.2000E+00
  0.2000E+00
  0.2000E+00
  0.2000E+00
  0.2000E+00
  0.2000E+00
  0.2000E+00
  0.2000E+00
  0.2000E+00
  0.2000E+00
  0.2000E+00
  0.2000E+00
  0.2000E+00
  0.2000E+00
  0.2000E+00
  0.2000E+00
  0.2000E+00
  0.2000E+00
  0.2000E+00
  0.2000E+00
  0.2000E+00
  0.2000E+00
  0.7077E+00
  0.7077E+00
  0.7077E+00
  0.7077E+00
  0.7077E+00
  0.7077E+00
  0.7077E+00
  0.7077E+00
  0.7077E+00
  0.7077E+00
  0.7077E+00
  0.7077E+00
  0.7077E+00
  0.7077E+00
  0.7076E+00
  0.7072E+00
  0.7057E+00
  0.7017E+00
  0.6937E+00
  0.6816E+00
  0.6661E+00
  0.6468E+00
  0.6234E+00
  0.5957E+00
  0.5613E+00
  0.5155E+00
  0.4618E+00
  0.4032E+00
  0.3480E+00
  0.3002E+00
  0.2613E+00
  0.2324E+00
  0.2141E+00
  0.2048E+00
  0.2012E+00
  0.2002E+00
  0.2000E+00
  0.2000E+00
  0.2000E+00
  0.2000E+00
  0.2000E+00
  0.2000E+00
  0.2000E+00
  0.2000E+00
  0.2000E+00
  0.2000E+00
  0.2000E+00
  0.2000E+00
  0.2000E+00
  0.2000E+00
  0.2000E+00
  0.2000E+00
  0.2000E+00
  0.2000E+00
  0.2000E+00
  0.2000E+00
  0.2000E+00
  0.2000E+00
  0.2000E+00
  0.2000E+00
  0.4958E+00
  0.4958E+00
  0.4958E+00
  0.4958E+00
  0.4958E+00
  0.4958E+00
  0.4958E+00
  0.4958E+00
  0.4958E+00
  0.4958E+00
  0.4958E+00
  0.4958E+00
  0.4958E+00
  0.4958E+00
  0.4958E+00
  0.4955E+00
  0.4944E+00
  0.4916E+00
  0.4859E+00
  0.4767E+00
  0.4633E+00
  0.4448E+00
  0.4213E+00
  0.3938E+00
  0.3628E+00
  0.3299E+00
  0.2980E+00
  0.2686E+00
  0.2433E+00
  0.2237E+00
  0.2108E+00
  0.2039E+00
  0.2011E+00
  0.2002E+00
  0.2000E+00
  0.2000E+00
  0.2000E+00
  0.2000E+00
  0.2000E+00
  0.2000E+00
  0.2000E+00
  0.2000E+00
  0.2000E+00
  0.2000E+00
  0.2000E+00
  0.2000E+00
  0.2000E+00
  0.2000E+00
  0.2000E+00
  0.2000E+00
  0.2000E+00
  0.2000E+00
  0.2000E+00
  0.2000E+00
  0.2000E+00
  0.2000E+00
  0.2000E+00
  0.2000E+00
  0.2000E+00
  0.2000E+00
  0.2947E+00
  0.2947E+00
  0.2947E+00
  0.2947E+00
  0.2947E+00
  0.2947E+00
  0.2947E+00
  0.2947E+00
  0.2947E+00
  0.2947E+00
  0.2947E+00
  0.2947E+00
  0.2947E+00
  0.2947E+00
  0.2947E+00
  0.2946E+00
  0.2943E+00
  0.2933E+00
  0.2914E+00
  0.2879E+00
  0.2825E+00
  0.2749E+00
  0.2652E+00
  0.2538E+00
  0.2415E+00
  0.2292E+00
  0.2184E+00
  0.2100E+00
  0.2046E+00
  0.2017E+00
  0.2005E+00
  0.2001E+00
  0.2000E+00
  0.2000E+00
  0.2000E+00
  0.2000E+00
  0.2000E+00
  0.2000E+00
  0.2000E+00
  0.2000E+00
  0.2000E+00
  0.2000E+00
  0.2000E+00
  0.2000E+00
  0.2000E+00
  0.2000E+00
  0.2000E+00
  0.2000E+00
  0.2000E+00
  0.2000E+00
  0.2000E+00
  0.2000E+00
  0.2000E+00
  0.2000E+00
  0.2000E+00
  0.2000E+00
  0.2000E+00
  0.2000E+00
  0.2000E+00
  0.2000E+00
  0.2132E+00
  0.2132E+00
  0.2132E+00
  0.2132E+00
  0.2132E+00
  0.2132E+00
  0.2132E+00
  0.2132E+00
  0.2132E+00
  0.2132E+00
  0.2132E+00
  0.2132E+00
  0.2132E+00
  0.2132E+00
  0.2132E+00
  0.2132E+00
  0.2131E+00
  0.2129E+00
  0.2125E+00
  0.2117E+00
  0.2104E+00
  0.2087E+00
  0.2067E+00
  0.2046E+00
  0.2029E+00
  0.2015E+00
  0.2007E+00
  0.2003E+00
  0.2001E+00
  0.2000E+00
  0.2000E+00
  0.2000E+00
  0.2000E+00
  0.2000E+00
  0.2000E+00
  0.2000E+00
  0.2000E+00
  0.2000E+00
  0.2000E+00
  0.2000E+00
  0.2000E+00
  0.2000E+00
  0.2000E+00
  0.2000E+00
  0.2000E+00
  0.2000E+00
  0.2000E+00
  0.2000E+00
  0.2000E+00
  0.2000E+00
  0.2000E+00
  0.2000E+00
  0.2000E+00
  0.2000E+00
  0.2000E+00
  0.2000E+00
  0.2000E+00
  0.2000E+00
  0.2000E+00
  0.2000E+00
  0.2002E+00
  0.2002E+00
  0.2002E+00
  0.2002E+00