# vtk DataFile Version 3.0
vtk output
ASCII
DATASET RECTILINEAR_GRID
DIMENSIONS          61          61 1
X_COORDINATES    61 double
  0.0000E+00
  0.1667E+00
  0.3333E+00
  0.5000E+00
  0.6667E+00
  0.8333E+00
  0.1000E+01
  0.1167E+01
  0.1333E+01
  0.1500E+01
  0.1667E+01
  0.1833E+01
  0.2000E+01
  0.2167E+01
  0.2333E+01
  0.2500E+01
  0.2667E+01
  0.2833E+01
  0.3000E+01
  0.3167E+01
  0.3333E+01
  0.3500E+01
  0.3667E+01
  0.3833E+01
  0.4000E+01
  0.4167E+01
  0.4333E+01
  0.4500E+01
  0.4667E+01
  0.4833E+01
  0.5000E+01
  0.5167E+01
  0.5333E+01
  0.5500E+01
  0.5667E+01
  0.5833E+01
  0.6000E+01
  0.6167E+01
  0.6333E+01
  0.6500E+01
  0.6667E+01
  0.6833E+01
  0.7000E+01
  0.7167E+01
  0.7333E+01
  0.7500E+01
  0.7667E+01
  0.7833E+01
  0.8000E+01
  0.8167E+01
  0.8333E+01
  0.8500E+01
  0.8667E+01
  0.8833E+01
  0.9000E+01
  0.9167E+01
  0.9333E+01
  0.9500E+01
  0.9667E+01
  0.9833E+01
  0.1000E+02
Y_COORDINATES    61 double
  0.0000E+00
  0.1667E+00
  0.3333E+00
  0.5000E+00
  0.6667E+00
  0.8333E+00
  0.1000E+01
  0.1167E+01
  0.1333E+01
  0.1500E+01
  0.1667E+01
  0.1833E+01
  0.2000E+01
  0.2167E+01
  0.2333E+01
  0.2500E+01
  0.2667E+01
  0.2833E+01
  0.3000E+01
  0.3167E+01
  0.3333E+01
  0.3500E+01
  0.3667E+01
  0.3833E+01
  0.4000E+01
  0.4167E+01
  0.4333E+01
  0.4500E+01
  0.4667E+01
  0.4833E+01
  0.5000E+01
  0.5167E+01
  0.5333E+01
  0.5500E+01
  0.5667E+01
  0.5833E+01
  0.6000E+01
  0.6167E+01
  0.6333E+01
  0.6500E+01
  0.6667E+01
  0.6833E+01
  0.7000E+01
  0.7167E+01
  0.7333E+01
  0.7500E+01
  0.7667E+01
  0.7833E+01
  0.8000E+01
  0.8167E+01
  0.8333E+01
  0.8500E+01
  0.8667E+01
  0.8833E+01
  0.9000E+01
  0.9167E+01
  0.9333E+01
  0.9500E+01
  0.9667E+01
  0.9833E+01
  0.1000E+02
Z_COORDINATES 1 double
0
CELL_DATA                 3600
FIELD FieldData 4
density 1                 3600 double
  0.7992E+01
  0.7992E+01
  0.7992E+01
  0.7992E+01
  0.7992E+01
  0.7992E+01
  0.7992E+01
  0.7992E+01
  0.7992E+01
  0.7992E+01
  0.7992E+01
  0.7992E+01
  0.7992E+01
  0.7992E+01
  0.7992E+01
  0.7992E+01
  0.7992E+01
  0.7992E+01
  0.7986E+01
  0.7957E+01
  0.7854E+01
  0.7596E+01
  0.7148E+01
  0.6571E+01
  0.5957E+01
  0.5362E+01
  0.4817E+01
  0.4328E+01
  0.3890E+01
  0.3489E+01
  0.3122E+01
  0.2795E+01
  0.2509E+01
  0.2263E+01
  0.2055E+01
  0.1873E+01
  0.1699E+01
  0.1564E+01
  0.1479E+01
  0.1382E+01
  0.1215E+01
  0.1007E+01
  0.8495E+00
  0.7922E+00
  0.7540E+00
  0.6077E+00
  0.3771E+00
  0.2413E+00
  0.2021E+00
  0.2000E+00
  0.2000E+00
  0.2000E+00
  0.2000E+00
  0.2000E+00
  0.2000E+00
  0.2000E+00
  0.2000E+00
  0.2000E+00
  0.2000E+00
  0.2000E+00
  0.7964E+01
  0.7964E+01
  0.7964E+01
  0.7964E+01
  0.7964E+01
  0.7964E+01
  0.7964E+01
  0.7964E+01
  0.7964E+01
  0.7964E+01
  0.7964E+01
  0.7964E+01
  0.7964E+01
  0.7964E+01
  0.7964E+01
  0.7964E+01
  0.7964E+01
  0.7964E+01
  0.7958E+01
  0.7930E+01
  0.7827E+01
  0.7571E+01
  0.7126E+01
  0.6552E+01
  0.5941E+01
  0.5349E+01
  0.4807E+01
  0.4320E+01
  0.3884E+01
  0.3485E+01
  0.3119E+01
  0.2792E+01
  0.2508E+01
  0.2262E+01
  0.2054E+01
  0.1873E+01
  0.1698E+01
  0.1564E+01
  0.1479E+01
  0.1382E+01
  0.1214E+01
  0.1006E+01
  0.8483E+00
  0.7906E+00
  0.7523E+00
  0.6060E+00
  0.3763E+00
  0.2411E+00
  0.2021E+00
  0.2000E+00
  0.2000E+00
  0.2000E+00
  0.2000E+00
  0.2000E+00
  0.2000E+00
  0.2000E+00
  0.2000E+00
  0.2000E+00
  0.2000E+00
  0.2000E+00
  0.7861E+01
  0.7861E+01
  0.7861E+01
  0.7861E+01
  0.7861E+01
  0.7861E+01
  0.7861E+01
  0.7861E+01
  0.7861E+01
  0.7861E+01
  0.7861E+01
  0.7861E+01
  0.7861E+01
  0.7861E+01
  0.7861E+01
  0.7861E+01
  0.7861E+01
  0.7860E+01
  0.7855E+01
  0.7827E+01
  0.7727E+01
  0.7477E+01
  0.7040E+01
  0.6477E+01
  0.5877E+01
  0.5296E+01
  0.4763E+01
  0.4285E+01
  0.3856E+01
  0.3463E+01
  0.3102E+01
  0.2779E+01
  0.2498E+01
  0.2255E+01
  0.2049E+01
  0.1869E+01
  0.1696E+01
  0.1562E+01
  0.1476E+01
  0.1379E+01
  0.1211E+01
  0.1002E+01
  0.8432E+00
  0.7849E+00
  0.7462E+00
  0.6004E+00
  0.3738E+00
  0.2405E+00
  0.2020E+00
  0.2000E+00
  0.2000E+00
  0.2000E+00
  0.2000E+00
  0.2000E+00
  0.2000E+00
  0.2000E+00
  0.2000E+00
  0.2000E+00
  0.2000E+00
  0.2000E+00
  0.7603E+01
  0.7603E+01
  0.7603E+01
  0.7603E+01
  0.7603E+01
  0.7603E+01
  0.7603E+01
  0.7603E+01
  0.7603E+01
  0.7603E+01
  0.7603E+01
  0.7603E+01
  0.7603E+01
  0.7603E+01
  0.7603E+01
  0.7603E+01
  0.7603E+01
  0.7602E+01
  0.7597E+01
  0.7571E+01
  0.7477E+01
  0.7240E+01
  0.6822E+01
  0.6282E+01
  0.5707E+01
  0.5149E+01
  0.4638E+01
  0.4180E+01
  0.3769E+01
  0.3391E+01
  0.3045E+01
  0.2734E+01
  0.2462E+01
  0.2227E+01
  0.2028E+01
  0.1853E+01
  0.1683E+01
  0.1551E+01
  0.1466E+01
  0.1368E+01
  0.1198E+01
  0.9876E+00
  0.8293E+00
  0.7714E+00
  0.7327E+00
  0.5887E+00
  0.3684E+00
  0.2390E+00
  0.2019E+00
  0.2000E+00
  0.2000E+00
  0.2000E+00
  0.2000E+00
  0.2000E+00
  0.2000E+00
  0.2000E+00
  0.2000E+00
  0.2000E+00
  0.2000E+00
  0.2000E+00
  0.7154E+01
  0.7154E+01
  0.7154E+01
  0.7154E+01
  0.7154E+01
  0.7154E+01
  0.7154E+01
  0.7154E+01
  0.7154E+01
  0.7154E+01
  0.7154E+01
  0.7154E+01
  0.7154E+01
  0.7154E+01
  0.7154E+01
  0.7154E+01
  0.7154E+01
  0.7153E+01
  0.7149E+01
  0.7126E+01
  0.7040E+01
  0.6822E+01
  0.6435E+01
  0.5930E+01
  0.5391E+01
  0.4870E+01
  0.4393E+01
  0.3967E+01
  0.3584E+01
  0.3233E+01
  0.2910E+01
  0.2621E+01
  0.2369E+01
  0.2151E+01
  0.1966E+01
  0.1802E+01
  0.1641E+01
  0.1515E+01
  0.1432E+01
  0.1334E+01
  0.1165E+01
  0.9570E+00
  0.8030E+00
  0.7494E+00
  0.7124E+00
  0.5714E+00
  0.3596E+00
  0.2363E+00
  0.2016E+00
  0.2000E+00
  0.2000E+00
  0.2000E+00
  0.2000E+00
  0.2000E+00
  0.2000E+00
  0.2000E+00
  0.2000E+00
  0.2000E+00
  0.2000E+00
  0.2000E+00
  0.6576E+01
  0.6576E+01
  0.6576E+01
  0.6576E+01
  0.6576E+01
  0.6576E+01
  0.6576E+01
  0.6576E+01
  0.6576E+01
  0.6576E+01
  0.6576E+01
  0.6576E+01
  0.6576E+01
  0.6576E+01
  0.6576E+01
  0.6576E+01
  0.6576E+01
  0.6576E+01
  0.6572E+01
  0.6552E+01
  0.6477E+01
  0.6282E+01
  0.5930E+01
  0.5467E+01
  0.4969E+01
  0.4488E+01
  0.4048E+01
  0.3657E+01
  0.3306E+01
  0.2986E+01
  0.2693E+01
  0.2431E+01
  0.2203E+01
  0.2007E+01
  0.1841E+01
  0.1694E+01
  0.1548E+01
  0.1432E+01
  0.1355E+01
  0.1262E+01
  0.1102E+01
  0.9085E+00
  0.7677E+00
  0.7234E+00
  0.6886E+00
  0.5484E+00
  0.3465E+00
  0.2321E+00
  0.2013E+00
  0.2000E+00
  0.2000E+00
  0.2000E+00
  0.2000E+00
  0.2000E+00
  0.2000E+00
  0.2000E+00
  0.2000E+00
  0.2000E+00
  0.2000E+00
  0.2000E+00
  0.5961E+01
  0.5961E+01
  0.5961E+01
  0.5961E+01
  0.5961E+01
  0.5961E+01
  0.5961E+01
  0.5961E+01
  0.5961E+01
  0.5961E+01
  0.5961E+01
  0.5961E+01
  0.5961E+01
  0.5961E+01
  0.5961E+01
  0.5961E+01
  0.5961E+01
  0.5960E+01
  0.5957E+01
  0.5941E+01
  0.5877E+01
  0.5706E+01
  0.5391E+01
  0.4969E+01
  0.4512E+01
  0.4069E+01
  0.3665E+01
  0.3306E+01
  0.2986E+01
  0.2694E+01
  0.2428E+01
  0.2192E+01
  0.1988E+01
  0.1812E+01
  0.1665E+01
  0.1534E+01
  0.1404E+01
  0.1300E+01
  0.1233E+01
  0.1153E+01
  0.1016E+01
  0.8497E+00
  0.7312E+00
  0.6965E+00
  0.6619E+00
  0.5184E+00
  0.3296E+00
  0.2265E+00
  0.2009E+00
  0.2000E+00
  0.2000E+00
  0.2000E+00
  0.2000E+00
  0.2000E+00
  0.2000E+00
  0.2000E+00
  0.2000E+00
  0.2000E+00
  0.2000E+00
  0.2000E+00
  0.5365E+01
  0.5365E+01
  0.5365E+01
  0.5365E+01
  0.5365E+01
  0.5365E+01
  0.5365E+01
  0.5365E+01
  0.5365E+01
  0.5365E+01
  0.5365E+01
  0.5365E+01
  0.5365E+01
  0.5365E+01
  0.5365E+01
  0.5365E+01
  0.5365E+01
  0.5365E+01
  0.5362E+01
  0.5349E+01
  0.5296E+01
  0.5149E+01
  0.4870E+01
  0.4488E+01
  0.4069E+01
  0.3662E+01
  0.3290E+01
  0.2960E+01
  0.2666E+01
  0.2400E+01
  0.2158E+01
  0.1945E+01
  0.1760E+01
  0.1602E+01
  0.1469E+01
  0.1351E+01
  0.1235E+01
  0.1145E+01
  0.1092E+01
  0.1033E+01
  0.9264E+00
  0.7915E+00
  0.6978E+00
  0.6697E+00
  0.6312E+00
  0.4815E+00
  0.3091E+00
  0.2199E+00
  0.2005E+00
  0.2000E+00
  0.2000E+00
  0.2000E+00
  0.2000E+00
  0.2000E+00
  0.2000E+00
  0.2000E+00
  0.2000E+00
  0.2000E+00
  0.2000E+00
  0.2000E+00
  0.4819E+01
  0.4819E+01
  0.4819E+01
  0.4819E+01
  0.4819E+01
  0.4819E+01
  0.4819E+01
  0.4819E+01
  0.4819E+01
  0.4819E+01
  0.4819E+01
  0.4819E+01
  0.4819E+01
  0.4819E+01
  0.4819E+01
  0.4819E+01
  0.4819E+01
  0.4819E+01
  0.4817E+01
  0.4807E+01
  0.4763E+01
  0.4638E+01
  0.4393E+01
  0.4048E+01
  0.3665E+01
  0.3290E+01
  0.2947E+01
  0.2643E+01
  0.2373E+01
  0.2128E+01
  0.1907E+01
  0.1713E+01
  0.1545E+01
  0.1401E+01
  0.1280E+01
  0.1172E+01
  0.1068E+01
  0.9930E+00
  0.9575E+00
  0.9261E+00
  0.8494E+00
  0.7391E+00
  0.6665E+00
  0.6443E+00
  0.5954E+00
  0.4387E+00
  0.2863E+00
  0.2132E+00
  0.2003E+00
  0.2000E+00
  0.2000E+00
  0.2000E+00
  0.2000E+00
  0.2000E+00
  0.2000E+00
  0.2000E+00
  0.2000E+00
  0.2000E+00
  0.2000E+00
  0.2000E+00
  0.4330E+01
  0.4330E+01
  0.4330E+01
  0.4330E+01
  0.4330E+01
  0.4330E+01
  0.4330E+01
  0.4330E+01
  0.4330E+01
  0.4330E+01
  0.4330E+01
  0.4330E+01
  0.4330E+01
  0.4330E+01
  0.4330E+01
  0.4330E+01
  0.4330E+01
  0.4330E+01
  0.4329E+01
  0.4320E+01
  0.4285E+01
  0.4180E+01
  0.3966E+01
  0.3656E+01
  0.3306E+01
  0.2960E+01
  0.2643E+01
  0.2363E+01
  0.2114E+01
  0.1889E+01
  0.1687E+01
  0.1509E+01
  0.1356E+01
  0.1225E+01
  0.1114E+01
  0.1014E+01
  0.9213E+00
  0.8631E+00
  0.8551E+00
  0.8491E+00
  0.7913E+00
  0.6897E+00
  0.6372E+00
  0.6196E+00
  0.5511E+00
  0.3918E+00
  0.2628E+00
  0.2075E+00
  0.2001E+00
  0.2000E+00
  0.2000E+00
  0.2000E+00
  0.2000E+00
  0.2000E+00
  0.2000E+00
  0.2000E+00
  0.2000E+00
  0.2000E+00
  0.2000E+00
  0.2000E+00
  0.3891E+01
  0.3891E+01
  0.3891E+01
  0.3891E+01
  0.3891E+01
  0.3891E+01
  0.3891E+01
  0.3891E+01
  0.3891E+01
  0.3891E+01
  0.3891E+01
  0.3891E+01
  0.3891E+01
  0.3891E+01
  0.3891E+01
  0.3891E+01
  0.3891E+01
  0.3891E+01
  0.3890E+01
  0.3884E+01
  0.3855E+01
  0.3768E+01
  0.3583E+01
  0.3305E+01
  0.2985E+01
  0.2666E+01
  0.2373E+01
  0.2114E+01
  0.1885E+01
  0.1678E+01
  0.1492E+01
  0.1330E+01
  0.1190E+01
  0.1069E+01
  0.9675E+00
  0.8751E+00
  0.7927E+00
  0.7732E+00
  0.7903E+00
  0.7968E+00
  0.7359E+00
  0.6410E+00
  0.6106E+00
  0.5893E+00
  0.4953E+00
  0.3444E+00
  0.2408E+00
  0.2036E+00
  0.2000E+00
  0.2000E+00
  0.2000E+00
  0.2000E+00
  0.2000E+00
  0.2000E+00
  0.2000E+00
  0.2000E+00
  0.2000E+00
  0.2000E+00
  0.2000E+00
  0.2000E+00
  0.3490E+01
  0.3490E+01
  0.3490E+01
  0.3490E+01
  0.3490E+01
  0.3490E+01
  0.3490E+01
  0.3490E+01
  0.3490E+01
  0.3490E+01
  0.3490E+01
  0.3490E+01
  0.3490E+01
  0.3490E+01
  0.3490E+01
  0.3490E+01
  0.3490E+01
  0.3490E+01
  0.3489E+01
  0.3485E+01
  0.3462E+01
  0.3391E+01
  0.3232E+01
  0.2985E+01
  0.2694E+01
  0.2399E+01
  0.2128E+01
  0.1889E+01
  0.1678E+01
  0.1487E+01
  0.1317E+01
  0.1169E+01
  0.1041E+01
  0.9318E+00
  0.8400E+00
  0.7520E+00
  0.7071E+00
  0.7183E+00
  0.7612E+00
  0.7511E+00
  0.6606E+00
  0.5964E+00
  0.5850E+00
  0.5513E+00
  0.4311E+00
  0.3002E+00
  0.2228E+00
  0.2014E+00
  0.2000E+00
  0.2000E+00
  0.2000E+00
  0.2000E+00
  0.2000E+00
  0.2000E+00
  0.2000E+00
  0.2000E+00
  0.2000E+00
  0.2000E+00
  0.2000E+00
  0.2000E+00
  0.3123E+01
  0.3123E+01
  0.3123E+01
  0.3123E+01
  0.3123E+01
  0.3123E+01
  0.3123E+01
  0.3123E+01
  0.3123E+01
  0.3123E+01
  0.3123E+01
  0.3123E+01
  0.3123E+01
  0.3123E+01
  0.3123E+01
  0.3123E+01
  0.3123E+01
  0.3123E+01
  0.3122E+01
  0.3119E+01
  0.3102E+01
  0.3044E+01
  0.2910E+01
  0.2692E+01
  0.2428E+01
  0.2158E+01
  0.1907E+01
  0.1686E+01
  0.1492E+01
  0.1317E+01
  0.1162E+01
  0.1028E+01
  0.9113E+00
  0.8140E+00
  0.7264E+00
  0.6598E+00
  0.6643E+00
  0.7241E+00
  0.7370E+00
  0.6777E+00
  0.5880E+00
  0.5689E+00
  0.5597E+00
  0.4960E+00
  0.3668E+00
  0.2620E+00
  0.2105E+00
  0.2004E+00
  0.2000E+00
  0.2000E+00
  0.2000E+00
  0.2000E+00
  0.2000E+00
  0.2000E+00
  0.2000E+00
  0.2000E+00
  0.2000E+00
  0.2000E+00
  0.2000E+00
  0.2000E+00
  0.2795E+01
  0.2795E+01
  0.2795E+01
  0.2795E+01
  0.2795E+01
  0.2795E+01
  0.2795E+01
  0.2795E+01
  0.2795E+01
  0.2795E+01
  0.2795E+01
  0.2795E+01
  0.2795E+01
  0.2795E+01
  0.2795E+01
  0.2795E+01
  0.2795E+01
  0.2795E+01
  0.2795E+01
  0.2792E+01
  0.2779E+01
  0.2733E+01
  0.2621E+01
  0.2430E+01
  0.2191E+01
  0.1944E+01
  0.1712E+01
  0.1509E+01
  0.1329E+01
  0.1169E+01
  0.1028E+01
  0.9055E+00
  0.8011E+00
  0.7098E+00
  0.6377E+00
  0.6370E+00
  0.6884E+00
  0.7249E+00
  0.6873E+00
  0.5907E+00
  0.5499E+00
  0.5485E+00
  0.5224E+00
  0.4219E+00
  0.3087E+00
  0.2328E+00
  0.2039E+00
  0.2001E+00
  0.2000E+00
  0.2000E+00
  0.2000E+00
  0.2000E+00
  0.2000E+00
  0.2000E+00
  0.2000E+00
  0.2000E+00
  0.2000E+00
  0.2000E+00
  0.2000E+00
  0.2000E+00
  0.2510E+01
  0.2510E+01
  0.2510E+01
  0.2510E+01
  0.2510E+01
  0.2510E+01
  0.2510E+01
  0.2510E+01
  0.2510E+01
  0.2510E+01
  0.2510E+01
  0.2510E+01
  0.2510E+01
  0.2510E+01
  0.2510E+01
  0.2510E+01
  0.2510E+01
  0.2510E+01
  0.2509E+01
  0.2508E+01
  0.2498E+01
  0.2462E+01
  0.2369E+01
  0.2203E+01
  0.1987E+01
  0.1760E+01
  0.1545E+01
  0.1356E+01
  0.1189E+01
  0.1041E+01
  0.9113E+00
  0.8011E+00
  0.7056E+00
  0.6316E+00
  0.6255E+00
  0.6604E+00
  0.7061E+00
  0.6943E+00
  0.6086E+00
  0.5457E+00
  0.5389E+00
  0.5232E+00
  0.4541E+00
  0.3496E+00
  0.2625E+00
  0.2141E+00
  0.2011E+00
  0.2000E+00
  0.2000E+00
  0.2000E+00
  0.2000E+00
  0.2000E+00
  0.2000E+00
  0.2000E+00
  0.2000E+00
  0.2000E+00
  0.2000E+00
  0.2000E+00
  0.2000E+00
  0.2000E+00
  0.2263E+01
  0.2263E+01
  0.2263E+01
  0.2263E+01
  0.2263E+01
  0.2263E+01
  0.2263E+01
  0.2263E+01
  0.2263E+01
  0.2263E+01
  0.2263E+01
  0.2263E+01
  0.2263E+01
  0.2263E+01
  0.2263E+01
  0.2263E+01
  0.2263E+01
  0.2263E+01
  0.2263E+01
  0.2262E+01
  0.2255E+01
  0.2227E+01
  0.2150E+01
  0.2006E+01
  0.1812E+01
  0.1602E+01
  0.1401E+01
  0.1224E+01
  0.1069E+01
  0.9316E+00
  0.8140E+00
  0.7094E+00
  0.6319E+00
  0.6238E+00
  0.6437E+00
  0.6974E+00
  0.6995E+00
  0.6345E+00
  0.5539E+00
  0.5335E+00
  0.5209E+00
  0.4701E+00
  0.3781E+00
  0.2901E+00
  0.2301E+00
  0.2047E+00
  0.2002E+00
  0.2000E+00
  0.2000E+00
  0.2000E+00
  0.2000E+00
  0.2000E+00
  0.2000E+00
  0.2000E+00
  0.2000E+00
  0.2000E+00
  0.2000E+00
  0.2000E+00
  0.2000E+00
  0.2000E+00
  0.2055E+01
  0.2055E+01
  0.2055E+01
  0.2055E+01
  0.2055E+01
  0.2055E+01
  0.2055E+01
  0.2055E+01
  0.2055E+01
  0.2055E+01
  0.2055E+01
  0.2055E+01
  0.2055E+01
  0.2055E+01
  0.2055E+01
  0.2055E+01
  0.2055E+01
  0.2055E+01
  0.2055E+01
  0.2054E+01
  0.2049E+01
  0.2028E+01
  0.1965E+01
  0.1841E+01
  0.1664E+01
  0.1469E+01
  0.1280E+01
  0.1114E+01
  0.9672E+00
  0.8396E+00
  0.7261E+00
  0.6385E+00
  0.6259E+00
  0.6456E+00
  0.6897E+00
  0.7034E+00
  0.6623E+00
  0.5747E+00
  0.5321E+00
  0.5171E+00
  0.4752E+00
  0.3953E+00
  0.3110E+00
  0.2469E+00
  0.2115E+00
  0.2011E+00
  0.2000E+00
  0.2000E+00
  0.2000E+00
  0.2000E+00
  0.2000E+00
  0.2000E+00
  0.2000E+00
  0.2000E+00
  0.2000E+00
  0.2000E+00
  0.2000E+00
  0.2000E+00
  0.2000E+00
  0.2000E+00
  0.1873E+01
  0.1873E+01
  0.1873E+01
  0.1873E+01
  0.1873E+01
  0.1873E+01
  0.1873E+01
  0.1873E+01
  0.1873E+01
  0.1873E+01
  0.1873E+01
  0.1873E+01
  0.1873E+01
  0.1873E+01
  0.1873E+01
  0.1873E+01
  0.1873E+01
  0.1873E+01
  0.1873E+01
  0.1872E+01
  0.1869E+01
  0.1852E+01
  0.1802E+01
  0.1694E+01
  0.1533E+01
  0.1351E+01
  0.1172E+01
  0.1014E+01
  0.8748E+00
  0.7513E+00
  0.6607E+00
  0.6366E+00
  0.6612E+00
  0.6963E+00
  0.7000E+00
  0.6720E+00
  0.5955E+00
  0.5402E+00
  0.5150E+00
  0.4752E+00
  0.4028E+00
  0.3241E+00
  0.2605E+00
  0.2197E+00
  0.2032E+00
  0.2002E+00
  0.2000E+00
  0.2000E+00
  0.2000E+00
  0.2000E+00
  0.2000E+00
  0.2000E+00
  0.2000E+00
  0.2000E+00
  0.2000E+00
  0.2000E+00
  0.2000E+00
  0.2000E+00
  0.2000E+00
  0.2000E+00
  0.1699E+01
  0.1699E+01
  0.1699E+01
  0.1699E+01
  0.1699E+01
  0.1699E+01
  0.1699E+01
  0.1699E+01
  0.1699E+01
  0.1699E+01
  0.1699E+01
  0.1699E+01
  0.1699E+01
  0.1699E+01
  0.1699E+01
  0.1699E+01
  0.1699E+01
  0.1699E+01
  0.1699E+01
  0.1698E+01
  0.1696E+01
  0.1683E+01
  0.1641E+01
  0.1548E+01
  0.1404E+01
  0.1235E+01
  0.1067E+01
  0.9211E+00
  0.7920E+00
  0.7071E+00
  0.6634E+00
  0.6886E+00
  0.7096E+00
  0.7001E+00
  0.6590E+00
  0.5918E+00
  0.5450E+00
  0.5173E+00
  0.4751E+00
  0.4056E+00
  0.3310E+00
  0.2699E+00
  0.2273E+00
  0.2062E+00
  0.2006E+00
  0.2000E+00
  0.2000E+00
  0.2000E+00
  0.2000E+00
  0.2000E+00
  0.2000E+00
  0.2000E+00
  0.2000E+00
  0.2000E+00
  0.2000E+00
  0.2000E+00
  0.2000E+00
  0.2000E+00
  0.2000E+00
  0.2000E+00
  0.1564E+01
  0.1564E+01
  0.1564E+01
  0.1564E+01
  0.1564E+01
  0.1564E+01
  0.1564E+01
  0.1564E+01
  0.1564E+01
  0.1564E+01
  0.1564E+01
  0.1564E+01
  0.1564E+01
  0.1564E+01
  0.1564E+01
  0.1564E+01
  0.1564E+01
  0.1564E+01
  0.1564E+01
  0.1564E+01
  0.1562E+01
  0.1551E+01
  0.1515E+01
  0.1432E+01
  0.1300E+01
  0.1145E+01
  0.9929E+00
  0.8633E+00
  0.7730E+00
  0.7183E+00
  0.7233E+00
  0.7198E+00
  0.6952E+00
  0.6350E+00
  0.5755E+00
  0.5378E+00
  0.5154E+00
  0.4751E+00
  0.4061E+00
  0.3331E+00
  0.2750E+00
  0.2331E+00
  0.2093E+00
  0.2014E+00
  0.2001E+00
  0.2000E+00
  0.2000E+00
  0.2000E+00
  0.2000E+00
  0.2000E+00
  0.2000E+00
  0.2000E+00
  0.2000E+00
  0.2000E+00
  0.2000E+00
  0.2000E+00
  0.2000E+00
  0.2000E+00
  0.2000E+00
  0.2000E+00
  0.1479E+01
  0.1479E+01
  0.1479E+01
  0.1479E+01
  0.1479E+01
  0.1479E+01
  0.1479E+01
  0.1479E+01
  0.1479E+01
  0.1479E+01
  0.1479E+01
  0.1479E+01
  0.1479E+01
  0.1479E+01
  0.1479E+01
  0.1479E+01
  0.1479E+01
  0.1479E+01
  0.1479E+01
  0.1479E+01
  0.1476E+01
  0.1466E+01
  0.1432E+01
  0.1355E+01
  0.1233E+01
  0.1091E+01
  0.9575E+00
  0.8550E+00
  0.7907E+00
  0.7625E+00
  0.7383E+00
  0.6862E+00
  0.6077E+00
  0.5570E+00
  0.5363E+00
  0.5159E+00
  0.4737E+00
  0.4056E+00
  0.3327E+00
  0.2758E+00
  0.2365E+00
  0.2121E+00
  0.2023E+00
  0.2002E+00
  0.2000E+00
  0.2000E+00
  0.2000E+00
  0.2000E+00
  0.2000E+00
  0.2000E+00
  0.2000E+00
  0.2000E+00
  0.2000E+00
  0.2000E+00
  0.2000E+00
  0.2000E+00
  0.2000E+00
  0.2000E+00
  0.2000E+00
  0.2000E+00
  0.1382E+01
  0.1382E+01
  0.1382E+01
  0.1382E+01
  0.1382E+01
  0.1382E+01
  0.1382E+01
  0.1382E+01
  0.1382E+01
  0.1382E+01
  0.1382E+01
  0.1382E+01
  0.1382E+01
  0.1382E+01
  0.1382E+01
  0.1382E+01
  0.1382E+01
  0.1382E+01
  0.1382E+01
  0.1382E+01
  0.1379E+01
  0.1368E+01
  0.1334E+01
  0.1261E+01
  0.1153E+01
  0.1033E+01
  0.9263E+00
  0.8487E+00
  0.7963E+00
  0.7504E+00
  0.6755E+00
  0.5918E+00
  0.5432E+00
  0.5331E+00
  0.5196E+00
  0.4762E+00
  0.4049E+00
  0.3329E+00
  0.2758E+00
  0.2370E+00
  0.2137E+00
  0.2032E+00
  0.2004E+00
  0.2000E+00
  0.2000E+00
  0.2000E+00
  0.2000E+00
  0.2000E+00
  0.2000E+00
  0.2000E+00
  0.2000E+00
  0.2000E+00
  0.2000E+00
  0.2000E+00
  0.2000E+00
  0.2000E+00
  0.2000E+00
  0.2000E+00
  0.2000E+00
  0.2000E+00
  0.1215E+01
  0.1215E+01
  0.1215E+01
  0.1215E+01
  0.1215E+01
  0.1215E+01
  0.1215E+01
  0.1215E+01
  0.1215E+01
  0.1215E+01
  0.1215E+01
  0.1215E+01
  0.1215E+01
  0.1215E+01
  0.1215E+01
  0.1215E+01
  0.1215E+01
  0.1215E+01
  0.1215E+01
  0.1214E+01
  0.1211E+01
  0.1198E+01
  0.1165E+01
  0.1102E+01
  0.1016E+01
  0.9259E+00
  0.8491E+00
  0.7912E+00
  0.7356E+00
  0.6601E+00
  0.5877E+00
  0.5533E+00
  0.5367E+00
  0.5191E+00
  0.4742E+00
  0.4029E+00
  0.3308E+00
  0.2748E+00
  0.2365E+00
  0.2136E+00
  0.2036E+00
  0.2005E+00
  0.2000E+00
  0.2000E+00
  0.2000E+00
  0.2000E+00
  0.2000E+00
  0.2000E+00
  0.2000E+00
  0.2000E+00
  0.2000E+00
  0.2000E+00
  0.2000E+00
  0.2000E+00
  0.2000E+00
  0.2000E+00
  0.2000E+00
  0.2000E+00
  0.2000E+00
  0.2000E+00
  0.1007E+01
  0.1007E+01
  0.1007E+01
  0.1007E+01
  0.1007E+01
  0.1007E+01
  0.1007E+01
  0.1007E+01
  0.1007E+01
  0.1007E+01
  0.1007E+01
  0.1007E+01
  0.1007E+01
  0.1007E+01
  0.1007E+01
  0.1007E+01
  0.1007E+01
  0.1007E+01
  0.1007E+01
  0.1006E+01
  0.1001E+01
  0.9874E+00
  0.9567E+00
  0.9082E+00
  0.8494E+00
  0.7913E+00
  0.7388E+00
  0.6894E+00
  0.6409E+00
  0.5958E+00
  0.5686E+00
  0.5494E+00
  0.5241E+00
  0.4689E+00
  0.3947E+00
  0.3242E+00
  0.2699E+00
  0.2331E+00
  0.2121E+00
  0.2032E+00
  0.2005E+00
  0.2001E+00
  0.2000E+00
  0.2000E+00
  0.2000E+00
  0.2000E+00
  0.2000E+00
  0.2000E+00
  0.2000E+00
  0.2000E+00
  0.2000E+00
  0.2000E+00
  0.2000E+00
  0.2000E+00
  0.2000E+00
  0.2000E+00
  0.2000E+00
  0.2000E+00
  0.2000E+00
  0.2000E+00
  0.8498E+00
  0.8498E+00
  0.8498E+00
  0.8498E+00
  0.8498E+00
  0.8498E+00
  0.8498E+00
  0.8498E+00
  0.8498E+00
  0.8498E+00
  0.8498E+00
  0.8498E+00
  0.8498E+00
  0.8498E+00
  0.8498E+00
  0.8498E+00
  0.8498E+00
  0.8498E+00
  0.8495E+00
  0.8483E+00
  0.8431E+00
  0.8292E+00
  0.8029E+00
  0.7676E+00
  0.7311E+00
  0.6979E+00
  0.6665E+00
  0.6374E+00
  0.6107E+00
  0.5848E+00
  0.5589E+00
  0.5211E+00
  0.4558E+00
  0.3786E+00
  0.3110E+00
  0.2606E+00
  0.2273E+00
  0.2093E+00
  0.2023E+00
  0.2004E+00
  0.2000E+00
  0.2000E+00
  0.2000E+00
  0.2000E+00
  0.2000E+00
  0.2000E+00
  0.2000E+00
  0.2000E+00
  0.2000E+00
  0.2000E+00
  0.2000E+00
  0.2000E+00
  0.2000E+00
  0.2000E+00
  0.2000E+00
  0.2000E+00
  0.2000E+00
  0.2000E+00
  0.2000E+00
  0.2000E+00
  0.7925E+00
  0.7925E+00
  0.7925E+00
  0.7925E+00
  0.7925E+00
  0.7925E+00
  0.7925E+00
  0.7925E+00
  0.7925E+00
  0.7925E+00
  0.7925E+00
  0.7925E+00
  0.7925E+00
  0.7925E+00
  0.7925E+00
  0.7925E+00
  0.7925E+00
  0.7925E+00
  0.7922E+00
  0.7906E+00
  0.7849E+00
  0.7714E+00
  0.7493E+00
  0.7232E+00
  0.6964E+00
  0.6698E+00
  0.6444E+00
  0.6200E+00
  0.5895E+00
  0.5516E+00
  0.4943E+00
  0.4218E+00
  0.3497E+00
  0.2902E+00
  0.2469E+00
  0.2197E+00
  0.2062E+00
  0.2014E+00
  0.2002E+00
  0.2000E+00
  0.2000E+00
  0.2000E+00
  0.2000E+00
  0.2000E+00
  0.2000E+00
  0.2000E+00
  0.2000E+00
  0.2000E+00
  0.2000E+00
  0.2000E+00
  0.2000E+00
  0.2000E+00
  0.2000E+00
  0.2000E+00
  0.2000E+00
  0.2000E+00
  0.2000E+00
  0.2000E+00
  0.2000E+00
  0.2000E+00
  0.7544E+00
  0.7544E+00
  0.7544E+00
  0.7544E+00
  0.7544E+00
  0.7544E+00
  0.7544E+00
  0.7544E+00
  0.7544E+00
  0.7544E+00
  0.7544E+00
  0.7544E+00
  0.7544E+00
  0.7544E+00
  0.7544E+00
  0.7544E+00
  0.7544E+00
  0.7544E+00
  0.7540E+00
  0.7522E+00
  0.7461E+00
  0.7326E+00
  0.7122E+00
  0.6883E+00
  0.6616E+00
  0.6308E+00
  0.5953E+00
  0.5510E+00
  0.4954E+00
  0.4313E+00
  0.3666E+00
  0.3086E+00
  0.2624E+00
  0.2301E+00
  0.2114E+00
  0.2032E+00
  0.2006E+00
  0.2001E+00
  0.2000E+00
  0.2000E+00
  0.2000E+00
  0.2000E+00
  0.2000E+00
  0.2000E+00
  0.2000E+00
  0.2000E+00
  0.2000E+00
  0.2000E+00
  0.2000E+00
  0.2000E+00
  0.2000E+00
  0.2000E+00
  0.2000E+00
  0.2000E+00
  0.2000E+00
  0.2000E+00
  0.2000E+00
  0.2000E+00
  0.2000E+00
  0.2000E+00
  0.6082E+00
  0.6082E+00
  0.6082E+00
  0.6082E+00
  0.6082E+00
  0.6082E+00
  0.6082E+00
  0.6082E+00
  0.6082E+00
  0.6082E+00
  0.6082E+00
  0.6082E+00
  0.6082E+00
  0.6082E+00
  0.6082E+00
  0.6082E+00
  0.6082E+00
  0.6082E+00
  0.6078E+00
  0.6060E+00
  0.6003E+00
  0.5885E+00
  0.5712E+00
  0.5481E+00
  0.5180E+00
  0.4811E+00
  0.4385E+00
  0.3918E+00
  0.3444E+00
  0.3001E+00
  0.2620E+00
  0.2328E+00
  0.2141E+00
  0.2047E+00
  0.2011E+00
  0.2002E+00
  0.2000E+00
  0.2000E+00
  0.2000E+00
  0.2000E+00
  0.2000E+00
  0.2000E+00
  0.2000E+00
  0.2000E+00
  0.2000E+00
  0.2000E+00
  0.2000E+00
  0.2000E+00
  0.2000E+00
  0.2000E+00
  0.2000E+00
  0.2000E+00
  0.2000E+00
  0.2000E+00
  0.2000E+00
  0.2000E+00
  0.2000E+00
  0.2000E+00
  0.2000E+00
  0.2000E+00
  0.3774E+00
  0.3774E+00
  0.3774E+00
  0.3774E+00
  0.3774E+00
  0.3774E+00
  0.3774E+00
  0.3774E+00
  0.3774E+00
  0.3774E+00
  0.3774E+00
  0.3774E+00
  0.3774E+00
  0.3774E+00
  0.3774E+00
  0.3774E+00
  0.3774E+00
  0.3774E+00
  0.3772E+00
  0.3763E+00
  0.3737E+00
  0.3684E+00
  0.3595E+00
  0.3465E+00
  0.3295E+00
  0.3091E+00
  0.2863E+00
  0.2628E+00
  0.2408E+00
  0.2228E+00
  0.2105E+00
  0.2039E+00
  0.2011E+00
  0.2002E+00
  0.2000E+00
  0.2000E+00
  0.2000E+00
  0.2000E+00
  0.2000E+00
  0.2000E+00
  0.2000E+00
  0.2000E+00
  0.2000E+00
  0.2000E+00
  0.2000E+00
  0.2000E+00
  0.2000E+00
  0.2000E+00
  0.2000E+00
  0.2000E+00
  0.2000E+00
  0.2000E+00
  0.2000E+00
  0.2000E+00
  0.2000E+00
  0.2000E+00
  0.2000E+00
  0.2000E+00
  0.2000E+00
  0.2000E+00
  0.2414E+00
  0.2414E+00
  0.2414E+00
  0.2414E+00
  0.2414E+00
  0.2414E+00
  0.2414E+00
  0.2414E+00
  0.2414E+00
  0.2414E+00
  0.2414E+00
  0.2414E+00
  0.2414E+00
  0.2414E+00
  0.2414E+00
  0.2414E+00
  0.2414E+00
  0.2414E+00
  0.2413E+00
  0.2411E+00
  0.2405E+00
  0.2390E+00
  0.2363E+00
  0.2322E+00
  0.2265E+00
  0.2199E+00
  0.2132E+00
  0.2076E+00
  0.2036E+00
  0.2014E+00
  0.2004E+00
  0.2001E+00
  0.2000E+00
  0.2000E+00
  0.2000E+00
  0.2000E+00
  0.2000E+00
  0.2000E+00
  0.2000E+00
  0.2000E+00
  0.2000E+00
  0.2000E+00
  0.2000E+00
  0.2000E+00
  0.2000E+00
  0.2000E+00
  0.2000E+00
  0.2000E+00
  0.2000E+00
  0.2000E+00
  0.2000E+00
  0.2000E+00
  0.2000E+00
  0.2000E+00
  0.2000E+00
  0.2000E+00
  0.2000E+00
  0.2000E+00
  0.2000E+00
  0.2000E+00
  0.2021E+00
  0.2021E+00
  0.2021E+00
  0.2021E+00
  0.2021E+00
  0.2021E+00
  0.2021E+00
  0.2021E+00
  0.2021E+00
  0.2021E+00
  0.2021E+00
  0.2021E+00
  0.2021E+00
  0.2021E+00
  0.2021E+00
  0.2021E+00
  0.2021E+00
  0.2021E+00
  0.2021E+00
  0.2021E+00
  0.2020E+00
  0.2019E+00
  0.2016E+00
  0.2013E+00
  0.2009E+00
  0.2005E+00
  0.2003E+00
  0.2001E+00
  0.2000E+00
  0.2000E+00
  0.2000E+00
  0.2000E+00
  0.2000E+00
  0.2000E+00
  0.2000E+00
  0.2000E+00
  0.2000E+00
  0.2000E+00
  0.2000E+00
  0.2000E+00
  0.2000E+00
  0.2000E+00
  0.2000E+00
  0.2000E+00
  0.2000E+00
  0.2000E+00
  0.2000E+00
  0.2000E+00
  0.2000E+00
  0.2000E+00
  0.2000E+00
  0.2000E+00
  0.2000E+00
  0.2000E+00
  0.2000E+00
  0.2000E+00
  0.2000E+00
  0.2000E+00
  0.2000E+00
  0.2000E+00
  0.2000E+00
  0.2000E+00
  0.2000E+00
  0.2000E+00
  0.2000E+00
  0.2000E+00
  0.2000E+00
  0.2000E+00
  0.2000E+00
  0.2000E+00
  0.2000E+00
  0.2000E+00
  0.2000E+00
  0.2000E+00
  0.2000E+00
  0.2000E+00
  0.2000E+00
  0.2000E+00
  0.2000E+00
  0.2000E+00
  0.2000E+00
  0.2000E+00
  0.2000E+00
  0.2000E+00
  0.2000E+00
  0.2000E+00
  0.2000E+00
  0.2000E+00
  0.2000E+00
  0.2000E+00
  0.2000E+00
  0.2000E+00
  0.2000E+00
  0.2000E+00
  0.2000E+00
  0.2000E+00
  0.2000E+00
  0.2000E+00
  0.2000E+00
  0.2000E+00
  0.2000E+00
  0.2000E+00
  0.2000E+00
  0.2000E+00
  0.2000E+00
  0.2000E+00
  0.2000E+00
  0.2000E+00
  0.2000E+00
  0.2000E+00
  0.2000E+00
  0.2000E+00
  0.2000E+00
  0.2000E+00
  0.2000E+00
  0.2000E+00
  0.2000E+00
  0.2000E+00
  0.2000E+00
  0.2000E+00
  0.2000E+00
  0.2000E+00
  0.2000E+00
  0.2000E+00
  0.2000E+00
  0.2000E+00
  0.2000E+00
  0.2000E+00
  0.2000E+00
  0.2000E+00
  0.2000E+00
  0.2000E+00
  0.2000E+00
  0.2000E+00
  0.2000E+00
  0.2000E+00
  0.2000E+00
  0.2000E+00
  0.2000E+00
  0.2000E+00
  0.2000E+00
  0.2000E+00
  0.2000E+00
  0.2000E+00
  0.2000E+00
  0.2000E+00
  0.2000E+00
  0.2000E+00
  0.2000E+00
  0.2000E+00
  0.2000E+00
  0.2000E+00
  0.2000E+00
  0.2000E+00
  0.2000E+00
  0.2000E+00
  0.2000E+00
  0.2000E+00
  0.2000E+00
  0.2000E+00
  0.2000E+00
  0.2000E+00
  0.2000E+00
  0.2000E+00
  0.2000E+00
  0.2000E+00
  0.2000E+00
  0.2000E+00
  0.2000E+00
  0.2000E+00
  0.2000E+00
  0.2000E+00
  0.2000E+00
  0.2000E+00
  0.2000E+00
  0.2000E+00
  0.2000E+00
  0.2000E+00
  0.2000E+00
  0.2000E+00
  0.2000E+00
  0.2000E+00
  0.2000E+00
  0.2000E+00
  0.2000E+00
  0.2000E+00
  0.2000E+00
  0.2000E+00
  0.2000E+00
  0.2000E+00
  0.2000E+00
  0.2000E+00
  0.2000E+00
  0.2000E+00
  0.2000E+00
  0.2000E+00
  0.2000E+00
  0.2000E+00
  0.2000E+00
  0.2000E+00
  0.2000E+00
  0.2000E+00
  0.2000E+00
  0.2000E+00
  0.2000E+00
  0.2000E+00
  0.2000E+00
  0.2000E+00
  0.2000E+00
  0.2000E+00
  0.2000E+00
  0.2000E+00
  0.2000E+00
  0.2000E+00
  0.2000E+00
  0.2000E+00
  0.2000E+00
  0.2000E+00
  0.2000E+00
  0.2000E+00
  0.2000E+00
  0.2000E+00
  0.2000E+00
  0.2000E+00
  0.2000E+00
  0.2000E+00
  0.2000E+00
  0.2000E+00
  0.2000E+00
  0.2000E+00
  0.2000E+00
  0.2000E+00
  0.2000E+00
  0.2000E+00
  0.2000E+00
  0.2000E+00
  0.2000E+00
  0.2000E+00
  0.2000E+00
  0.2000E+00
  0.2000E+00
  0.2000E+00
  0.2000E+00
  0.2000E+00
  0.2000E+00
  0.2000E+00
  0.2000E+00
  0.2000E+00
  0.2000E+00
  0.2000E+00
  0.2000E+00
  0.2000E+00
  0.2000E+00
  0.2000E+00
  0.2000E+00
  0.2000E+00
  0.2000E+00
  0.2000E+00
  0.2000E+00
  0.2000E+00
  0.2000E+00
  0.2000E+00
  0.2000E+00
  0.2000E+00
  0.2000E+00
  0.2000E+00
  0.2000E+00
  0.2000E+00
  0.2000E+00
  0.2000E+00
  0.2000E+00
  0.2000E+00
  0.2000E+00
  0.2000E+00
  0.2000E+00
  0.2000E+00
  0.2000E+00
  0.2000E+00
  0.2000E+00
  0.2000E+00
  0.2000E+00
  0.2000E+00
  0.2000E+00
  0.2000E+00
  0.2000E+00
  0.2000E+00
  0.2000E+00
  0.2000E+00
  0.2000E+00
  0.2000E+00
  0.2000E+00
  0.2000E+00
  0.2000E+00
  0.2000E+00
  0.2000E+00
  0.2000E+00
  0.2000E+00
  0.2000E+00
  0.2000E+00
  0.2000E+00
  0.2000E+00
  0.2000E+00
  0.2000E+00
  0.2000E+00
  0.2000E+00
  0.2000E+00
  0.2000E+00
  0.2000E+00
  0.2000E+00
  0.2000E+00
  0.2000E+00
  0.2000E+00
  0.2000E+00
  0.2000E+00
  0.2000E+00
  0.2000E+00
  0.2000E+00
  0.2000E+00
  0.2000E+00
  0.2000E+00
  0.2000E+00
  0.2000E+00
  0.2000E+00
  0.2000E+00
  0.2000E+00
  0.2000E+00
  0.2000E+00
  0.2000E+00
  0.2000E+00
  0.2000E+00
  0.2000E+00
  0.2000E+00
  0.2000E+00
  0.2000E+00
  0.2000E+00
  0.2000E+00
  0.2000E+00
  0.2000E+00
  0.2000E+00
  0.2000E+00
  0.2000E+00
  0.2000E+00
  0.2000E+00
  0.2000E+00
  0.2000E+00
  0.2000E+00
  0.2000E+00
  0.2000E+00
  0.2000E+00
  0.2000E+00
  0.2000E+00
  0.2000E+00
  0.2000E+00
  0.2000E+00
  0.2000E+00
  0.2000E+00
  0.2000E+00
  0.2000E+00
  0.2000E+00
  0.2000E+00
  0.2000E+00
  0.2000E+00
  0.2000E+00
  0.2000E+00