# vtk DataFile Version 3.0
vtk output
ASCII
DATASET RECTILINEAR_GRID
DIMENSIONS          61          61 1
X_COORDINATES    61 double
  0.0000E+00
  0.1667E+00
  0.3333E+00
  0.5000E+00
  0.6667E+00
  0.8333E+00
  0.1000E+01
  0.1167E+01
  0.1333E+01
  0.1500E+01
  0.1667E+01
  0.1833E+01
  0.2000E+01
  0.2167E+01
  0.2333E+01
  0.2500E+01
  0.2667E+01
  0.2833E+01
  0.3000E+01
  0.3167E+01
  0.3333E+01
  0.3500E+01
  0.3667E+01
  0.3833E+01
  0.4000E+01
  0.4167E+01
  0.4333E+01
  0.4500E+01
  0.4667E+01
  0.4833E+01
  0.5000E+01
  0.5167E+01
  0.5333E+01
  0.5500E+01
  0.5667E+01
  0.5833E+01
  0.6000E+01
  0.6167E+01
  0.6333E+01
  0.6500E+01
  0.6667E+01
  0.6833E+01
  0.7000E+01
  0.7167E+01
  0.7333E+01
  0.7500E+01
  0.7667E+01
  0.7833E+01
  0.8000E+01
  0.8167E+01
  0.8333E+01
  0.8500E+01
  0.8667E+01
  0.8833E+01
  0.9000E+01
  0.9167E+01
  0.9333E+01
  0.9500E+01
  0.9667E+01
  0.9833E+01
  0.1000E+02
Y_COORDINATES    61 double
  0.0000E+00
  0.1667E+00
  0.3333E+00
  0.5000E+00
  0.6667E+00
  0.8333E+00
  0.1000E+01
  0.1167E+01
  0.1333E+01
  0.1500E+01
  0.1667E+01
  0.1833E+01
  0.2000E+01
  0.2167E+01
  0.2333E+01
  0.2500E+01
  0.2667E+01
  0.2833E+01
  0.3000E+01
  0.3167E+01
  0.3333E+01
  0.3500E+01
  0.3667E+01
  0.3833E+01
  0.4000E+01
  0.4167E+01
  0.4333E+01
  0.4500E+01
  0.4667E+01
  0.4833E+01
  0.5000E+01
  0.5167E+01
  0.5333E+01
  0.5500E+01
  0.5667E+01
  0.5833E+01
  0.6000E+01
  0.6167E+01
  0.6333E+01
  0.6500E+01
  0.6667E+01
  0.6833E+01
  0.7000E+01
  0.7167E+01
  0.7333E+01
  0.7500E+01
  0.7667E+01
  0.7833E+01
  0.8000E+01
  0.8167E+01
  0.8333E+01
  0.8500E+01
  0.8667E+01
  0.8833E+01
  0.9000E+01
  0.9167E+01
  0.9333E+01
  0.9500E+01
  0.9667E+01
  0.9833E+01
  0.1000E+02
Z_COORDINATES 1 double
0
CELL_DATA                 3600
FIELD FieldData 4
density 1                 3600 double
  0.3042E+01
  0.3042E+01
  0.3042E+01
  0.3041E+01
  0.3040E+01
  0.3036E+01
  0.3025E+01
  0.3001E+01
  0.2956E+01
  0.2889E+01
  0.2804E+01
  0.2710E+01
  0.2612E+01
  0.2515E+01
  0.2419E+01
  0.2325E+01
  0.2234E+01
  0.2147E+01
  0.2062E+01
  0.1981E+01
  0.1904E+01
  0.1830E+01
  0.1759E+01
  0.1691E+01
  0.1626E+01
  0.1563E+01
  0.1504E+01
  0.1447E+01
  0.1392E+01
  0.1339E+01
  0.1289E+01
  0.1241E+01
  0.1194E+01
  0.1150E+01
  0.1107E+01
  0.1066E+01
  0.1027E+01
  0.9893E+00
  0.9535E+00
  0.9194E+00
  0.8870E+00
  0.8561E+00
  0.8268E+00
  0.7991E+00
  0.7734E+00
  0.7511E+00
  0.7332E+00
  0.7251E+00
  0.7254E+00
  0.7319E+00
  0.7466E+00
  0.7640E+00
  0.7790E+00
  0.7907E+00
  0.8311E+00
  0.1039E+01
  0.1725E+01
  0.2190E+01
  0.1826E+01
  0.1612E+01
  0.3040E+01
  0.3040E+01
  0.3040E+01
  0.3040E+01
  0.3038E+01
  0.3034E+01
  0.3024E+01
  0.2999E+01
  0.2954E+01
  0.2887E+01
  0.2803E+01
  0.2709E+01
  0.2611E+01
  0.2514E+01
  0.2418E+01
  0.2324E+01
  0.2233E+01
  0.2146E+01
  0.2061E+01
  0.1980E+01
  0.1903E+01
  0.1829E+01
  0.1758E+01
  0.1690E+01
  0.1625E+01
  0.1562E+01
  0.1503E+01
  0.1446E+01
  0.1391E+01
  0.1338E+01
  0.1288E+01
  0.1240E+01
  0.1193E+01
  0.1149E+01
  0.1106E+01
  0.1065E+01
  0.1026E+01
  0.9883E+00
  0.9525E+00
  0.9183E+00
  0.8859E+00
  0.8550E+00
  0.8257E+00
  0.7980E+00
  0.7722E+00
  0.7498E+00
  0.7319E+00
  0.7236E+00
  0.7238E+00
  0.7299E+00
  0.7443E+00
  0.7621E+00
  0.7775E+00
  0.7902E+00
  0.8330E+00
  0.1046E+01
  0.1738E+01
  0.2195E+01
  0.1829E+01
  0.1610E+01
  0.3036E+01
  0.3036E+01
  0.3036E+01
  0.3036E+01
  0.3035E+01
  0.3031E+01
  0.3020E+01
  0.2996E+01
  0.2951E+01
  0.2885E+01
  0.2800E+01
  0.2706E+01
  0.2609E+01
  0.2511E+01
  0.2415E+01
  0.2322E+01
  0.2231E+01
  0.2144E+01
  0.2059E+01
  0.1978E+01
  0.1901E+01
  0.1827E+01
  0.1755E+01
  0.1688E+01
  0.1622E+01
  0.1560E+01
  0.1501E+01
  0.1443E+01
  0.1389E+01
  0.1336E+01
  0.1286E+01
  0.1238E+01
  0.1191E+01
  0.1147E+01
  0.1104E+01
  0.1063E+01
  0.1024E+01
  0.9862E+00
  0.9504E+00
  0.9163E+00
  0.8838E+00
  0.8529E+00
  0.8235E+00
  0.7957E+00
  0.7699E+00
  0.7473E+00
  0.7294E+00
  0.7203E+00
  0.7203E+00
  0.7259E+00
  0.7399E+00
  0.7582E+00
  0.7747E+00
  0.7892E+00
  0.8366E+00
  0.1060E+01
  0.1757E+01
  0.2191E+01
  0.1821E+01
  0.1598E+01
  0.3031E+01
  0.3031E+01
  0.3031E+01
  0.3031E+01
  0.3029E+01
  0.3026E+01
  0.3015E+01
  0.2991E+01
  0.2947E+01
  0.2881E+01
  0.2797E+01
  0.2703E+01
  0.2605E+01
  0.2508E+01
  0.2412E+01
  0.2318E+01
  0.2228E+01
  0.2140E+01
  0.2056E+01
  0.1975E+01
  0.1898E+01
  0.1823E+01
  0.1752E+01
  0.1684E+01
  0.1619E+01
  0.1557E+01
  0.1498E+01
  0.1440E+01
  0.1386E+01
  0.1333E+01
  0.1283E+01
  0.1235E+01
  0.1188E+01
  0.1144E+01
  0.1101E+01
  0.1060E+01
  0.1021E+01
  0.9831E+00
  0.9472E+00
  0.9130E+00
  0.8805E+00
  0.8496E+00
  0.8201E+00
  0.7922E+00
  0.7662E+00
  0.7435E+00
  0.7252E+00
  0.7152E+00
  0.7149E+00
  0.7199E+00
  0.7335E+00
  0.7522E+00
  0.7707E+00
  0.7884E+00
  0.8427E+00
  0.1083E+01
  0.1786E+01
  0.2178E+01
  0.1803E+01
  0.1600E+01
  0.3024E+01
  0.3024E+01
  0.3023E+01
  0.3023E+01
  0.3022E+01
  0.3018E+01
  0.3008E+01
  0.2984E+01
  0.2941E+01
  0.2875E+01
  0.2791E+01
  0.2698E+01
  0.2600E+01
  0.2503E+01
  0.2407E+01
  0.2314E+01
  0.2223E+01
  0.2136E+01
  0.2052E+01
  0.1971E+01
  0.1893E+01
  0.1819E+01
  0.1748E+01
  0.1680E+01
  0.1615E+01
  0.1553E+01
  0.1493E+01
  0.1436E+01
  0.1381E+01
  0.1329E+01
  0.1279E+01
  0.1230E+01
  0.1184E+01
  0.1139E+01
  0.1097E+01
  0.1056E+01
  0.1016E+01
  0.9787E+00
  0.9428E+00
  0.9086E+00
  0.8759E+00
  0.8449E+00
  0.8153E+00
  0.7873E+00
  0.7611E+00
  0.7381E+00
  0.7194E+00
  0.7082E+00
  0.7073E+00
  0.7115E+00
  0.7249E+00
  0.7442E+00
  0.7658E+00
  0.7881E+00
  0.8523E+00
  0.1116E+01
  0.1820E+01
  0.2148E+01
  0.1768E+01
  0.1604E+01
  0.3014E+01
  0.3014E+01
  0.3014E+01
  0.3014E+01
  0.3012E+01
  0.3009E+01
  0.2999E+01
  0.2976E+01
  0.2933E+01
  0.2868E+01
  0.2785E+01
  0.2691E+01
  0.2594E+01
  0.2497E+01
  0.2401E+01
  0.2308E+01
  0.2217E+01
  0.2130E+01
  0.2046E+01
  0.1965E+01
  0.1887E+01
  0.1813E+01
  0.1742E+01
  0.1674E+01
  0.1609E+01
  0.1547E+01
  0.1488E+01
  0.1431E+01
  0.1376E+01
  0.1323E+01
  0.1273E+01
  0.1225E+01
  0.1178E+01
  0.1134E+01
  0.1091E+01
  0.1050E+01
  0.1011E+01
  0.9729E+00
  0.9370E+00
  0.9026E+00
  0.8699E+00
  0.8386E+00
  0.8089E+00
  0.7807E+00
  0.7543E+00
  0.7308E+00
  0.7116E+00
  0.6989E+00
  0.6971E+00
  0.7006E+00
  0.7140E+00
  0.7343E+00
  0.7597E+00
  0.7886E+00
  0.8668E+00
  0.1159E+01
  0.1868E+01
  0.2092E+01
  0.1713E+01
  0.1588E+01
  0.3002E+01
  0.3002E+01
  0.3002E+01
  0.3001E+01
  0.3000E+01
  0.2997E+01
  0.2987E+01
  0.2965E+01
  0.2923E+01
  0.2858E+01
  0.2776E+01
  0.2683E+01
  0.2586E+01
  0.2489E+01
  0.2393E+01
  0.2300E+01
  0.2210E+01
  0.2122E+01
  0.2038E+01
  0.1957E+01
  0.1880E+01
  0.1806E+01
  0.1735E+01
  0.1667E+01
  0.1602E+01
  0.1540E+01
  0.1481E+01
  0.1424E+01
  0.1369E+01
  0.1316E+01
  0.1266E+01
  0.1218E+01
  0.1171E+01
  0.1127E+01
  0.1084E+01
  0.1043E+01
  0.1003E+01
  0.9655E+00
  0.9294E+00
  0.8948E+00
  0.8619E+00
  0.8304E+00
  0.8004E+00
  0.7719E+00
  0.7451E+00
  0.7210E+00
  0.7011E+00
  0.6866E+00
  0.6838E+00
  0.6868E+00
  0.7002E+00
  0.7222E+00
  0.7541E+00
  0.7939E+00
  0.8919E+00
  0.1210E+01
  0.1914E+01
  0.2011E+01
  0.1648E+01
  0.1562E+01
  0.2987E+01
  0.2987E+01
  0.2987E+01
  0.2987E+01
  0.2986E+01
  0.2982E+01
  0.2973E+01
  0.2951E+01
  0.2910E+01
  0.2847E+01
  0.2765E+01
  0.2673E+01
  0.2576E+01
  0.2479E+01
  0.2384E+01
  0.2290E+01
  0.2200E+01
  0.2113E+01
  0.2029E+01
  0.1948E+01
  0.1871E+01
  0.1797E+01
  0.1726E+01
  0.1658E+01
  0.1593E+01
  0.1531E+01
  0.1472E+01
  0.1415E+01
  0.1360E+01
  0.1308E+01
  0.1257E+01
  0.1209E+01
  0.1162E+01
  0.1118E+01
  0.1075E+01
  0.1033E+01
  0.9938E+00
  0.9558E+00
  0.9195E+00
  0.8847E+00
  0.8514E+00
  0.8196E+00
  0.7891E+00
  0.7601E+00
  0.7328E+00
  0.7079E+00
  0.6870E+00
  0.6706E+00
  0.6668E+00
  0.6698E+00
  0.6835E+00
  0.7099E+00
  0.7532E+00
  0.8075E+00
  0.9214E+00
  0.1259E+01
  0.1922E+01
  0.1936E+01
  0.1577E+01
  0.1535E+01
  0.2969E+01
  0.2969E+01
  0.2969E+01
  0.2969E+01
  0.2968E+01
  0.2965E+01
  0.2956E+01
  0.2935E+01
  0.2895E+01
  0.2833E+01
  0.2752E+01
  0.2660E+01
  0.2564E+01
  0.2467E+01
  0.2372E+01
  0.2279E+01
  0.2188E+01
  0.2101E+01
  0.2017E+01
  0.1937E+01
  0.1860E+01
  0.1786E+01
  0.1715E+01
  0.1647E+01
  0.1582E+01
  0.1520E+01
  0.1461E+01
  0.1404E+01
  0.1349E+01
  0.1296E+01
  0.1246E+01
  0.1198E+01
  0.1151E+01
  0.1106E+01
  0.1063E+01
  0.1021E+01
  0.9815E+00
  0.9432E+00
  0.9065E+00
  0.8713E+00
  0.8375E+00
  0.8052E+00
  0.7742E+00
  0.7446E+00
  0.7166E+00
  0.6909E+00
  0.6686E+00
  0.6504E+00
  0.6466E+00
  0.6494E+00
  0.6654E+00
  0.7023E+00
  0.7608E+00
  0.8290E+00
  0.9539E+00
  0.1300E+01
  0.1901E+01
  0.1849E+01
  0.1511E+01
  0.1500E+01
  0.2948E+01
  0.2948E+01
  0.2948E+01
  0.2947E+01
  0.2946E+01
  0.2944E+01
  0.2935E+01
  0.2915E+01
  0.2876E+01
  0.2816E+01
  0.2736E+01
  0.2645E+01
  0.2549E+01
  0.2452E+01
  0.2357E+01
  0.2264E+01
  0.2174E+01
  0.2087E+01
  0.2004E+01
  0.1923E+01
  0.1846E+01
  0.1772E+01
  0.1701E+01
  0.1634E+01
  0.1569E+01
  0.1507E+01
  0.1447E+01
  0.1390E+01
  0.1335E+01
  0.1283E+01
  0.1232E+01
  0.1183E+01
  0.1136E+01
  0.1091E+01
  0.1048E+01
  0.1006E+01
  0.9655E+00
  0.9267E+00
  0.8895E+00
  0.8538E+00
  0.8195E+00
  0.7866E+00
  0.7550E+00
  0.7247E+00
  0.6960E+00
  0.6694E+00
  0.6458E+00
  0.6265E+00
  0.6233E+00
  0.6279E+00
  0.6508E+00
  0.7042E+00
  0.7811E+00
  0.8589E+00
  0.9853E+00
  0.1327E+01
  0.1846E+01
  0.1743E+01
  0.1450E+01
  0.1457E+01
  0.2922E+01
  0.2922E+01
  0.2922E+01
  0.2922E+01
  0.2921E+01
  0.2918E+01
  0.2910E+01
  0.2891E+01
  0.2854E+01
  0.2795E+01
  0.2717E+01
  0.2626E+01
  0.2531E+01
  0.2435E+01
  0.2340E+01
  0.2247E+01
  0.2157E+01
  0.2070E+01
  0.1987E+01
  0.1906E+01
  0.1829E+01
  0.1755E+01
  0.1684E+01
  0.1617E+01
  0.1552E+01
  0.1490E+01
  0.1430E+01
  0.1373E+01
  0.1318E+01
  0.1265E+01
  0.1214E+01
  0.1165E+01
  0.1118E+01
  0.1072E+01
  0.1028E+01
  0.9857E+00
  0.9449E+00
  0.9057E+00
  0.8680E+00
  0.8317E+00
  0.7969E+00
  0.7634E+00
  0.7313E+00
  0.7005E+00
  0.6712E+00
  0.6438E+00
  0.6185E+00
  0.6004E+00
  0.5991E+00
  0.6088E+00
  0.6486E+00
  0.7228E+00
  0.8111E+00
  0.8879E+00
  0.1008E+01
  0.1335E+01
  0.1764E+01
  0.1628E+01
  0.1393E+01
  0.1416E+01
  0.2891E+01
  0.2891E+01
  0.2891E+01
  0.2891E+01
  0.2890E+01
  0.2888E+01
  0.2881E+01
  0.2863E+01
  0.2827E+01
  0.2770E+01
  0.2693E+01
  0.2603E+01
  0.2509E+01
  0.2413E+01
  0.2318E+01
  0.2226E+01
  0.2136E+01
  0.2049E+01
  0.1965E+01
  0.1885E+01
  0.1808E+01
  0.1734E+01
  0.1663E+01
  0.1595E+01
  0.1530E+01
  0.1468E+01
  0.1408E+01
  0.1351E+01
  0.1295E+01
  0.1242E+01
  0.1191E+01
  0.1141E+01
  0.1094E+01
  0.1048E+01
  0.1003E+01
  0.9606E+00
  0.9194E+00
  0.8797E+00
  0.8416E+00
  0.8050E+00
  0.7698E+00
  0.7360E+00
  0.7036E+00
  0.6725E+00
  0.6427E+00
  0.6147E+00
  0.5873E+00
  0.5755E+00
  0.5776E+00
  0.6021E+00
  0.6655E+00
  0.7553E+00
  0.8467E+00
  0.9124E+00
  0.1020E+01
  0.1325E+01
  0.1655E+01
  0.1514E+01
  0.1340E+01
  0.1379E+01
  0.2854E+01
  0.2854E+01
  0.2854E+01
  0.2854E+01
  0.2853E+01
  0.2851E+01
  0.2844E+01
  0.2827E+01
  0.2793E+01
  0.2738E+01
  0.2663E+01
  0.2575E+01
  0.2481E+01
  0.2385E+01
  0.2291E+01
  0.2199E+01
  0.2109E+01
  0.2022E+01
  0.1939E+01
  0.1859E+01
  0.1781E+01
  0.1707E+01
  0.1637E+01
  0.1569E+01
  0.1503E+01
  0.1441E+01
  0.1381E+01
  0.1323E+01
  0.1267E+01
  0.1214E+01
  0.1162E+01
  0.1112E+01
  0.1064E+01
  0.1018E+01
  0.9736E+00
  0.9305E+00
  0.8891E+00
  0.8492E+00
  0.8109E+00
  0.7742E+00
  0.7390E+00
  0.7052E+00
  0.6728E+00
  0.6417E+00
  0.6118E+00
  0.5824E+00
  0.5574E+00
  0.5539E+00
  0.5677E+00
  0.6170E+00
  0.7002E+00
  0.7974E+00
  0.8806E+00
  0.9302E+00
  0.1022E+01
  0.1289E+01
  0.1525E+01
  0.1407E+01
  0.1289E+01
  0.1342E+01
  0.2808E+01
  0.2808E+01
  0.2808E+01
  0.2808E+01
  0.2807E+01
  0.2805E+01
  0.2799E+01
  0.2784E+01
  0.2752E+01
  0.2699E+01
  0.2626E+01
  0.2539E+01
  0.2446E+01
  0.2351E+01
  0.2257E+01
  0.2165E+01
  0.2076E+01
  0.1989E+01
  0.1906E+01
  0.1826E+01
  0.1748E+01
  0.1674E+01
  0.1603E+01
  0.1535E+01
  0.1470E+01
  0.1407E+01
  0.1347E+01
  0.1289E+01
  0.1233E+01
  0.1180E+01
  0.1128E+01
  0.1078E+01
  0.1030E+01
  0.9838E+00
  0.9391E+00
  0.8961E+00
  0.8547E+00
  0.8150E+00
  0.7770E+00
  0.7405E+00
  0.7056E+00
  0.6723E+00
  0.6403E+00
  0.6093E+00
  0.5792E+00
  0.5482E+00
  0.5358E+00
  0.5431E+00
  0.5798E+00
  0.6529E+00
  0.7493E+00
  0.8398E+00
  0.9070E+00
  0.9390E+00
  0.1010E+01
  0.1223E+01
  0.1378E+01
  0.1315E+01
  0.1242E+01
  0.1304E+01
  0.2752E+01
  0.2752E+01
  0.2752E+01
  0.2752E+01
  0.2752E+01
  0.2750E+01
  0.2744E+01
  0.2730E+01
  0.2701E+01
  0.2650E+01
  0.2580E+01
  0.2495E+01
  0.2403E+01
  0.2309E+01
  0.2215E+01
  0.2124E+01
  0.2035E+01
  0.1949E+01
  0.1865E+01
  0.1785E+01
  0.1708E+01
  0.1635E+01
  0.1564E+01
  0.1496E+01
  0.1430E+01
  0.1368E+01
  0.1308E+01
  0.1250E+01
  0.1194E+01
  0.1140E+01
  0.1089E+01
  0.1039E+01
  0.9915E+00
  0.9454E+00
  0.9011E+00
  0.8586E+00
  0.8177E+00
  0.7786E+00
  0.7411E+00
  0.7054E+00
  0.6712E+00
  0.6386E+00
  0.6069E+00
  0.5763E+00
  0.5439E+00
  0.5232E+00
  0.5262E+00
  0.5529E+00
  0.6154E+00
  0.7065E+00
  0.7997E+00
  0.8771E+00
  0.9232E+00
  0.9380E+00
  0.9832E+00
  0.1122E+01
  0.1228E+01
  0.1243E+01
  0.1202E+01
  0.1271E+01
  0.2686E+01
  0.2686E+01
  0.2686E+01
  0.2686E+01
  0.2685E+01
  0.2684E+01
  0.2679E+01
  0.2666E+01
  0.2639E+01
  0.2591E+01
  0.2523E+01
  0.2441E+01
  0.2350E+01
  0.2257E+01
  0.2165E+01
  0.2074E+01
  0.1986E+01
  0.1900E+01
  0.1817E+01
  0.1738E+01
  0.1661E+01
  0.1588E+01
  0.1517E+01
  0.1450E+01
  0.1385E+01
  0.1323E+01
  0.1263E+01
  0.1205E+01
  0.1150E+01
  0.1097E+01
  0.1046E+01
  0.9971E+00
  0.9500E+00
  0.9047E+00
  0.8611E+00
  0.8194E+00
  0.7794E+00
  0.7412E+00
  0.7047E+00
  0.6699E+00
  0.6368E+00
  0.6048E+00
  0.5738E+00
  0.5413E+00
  0.5151E+00
  0.5151E+00
  0.5351E+00
  0.5884E+00
  0.6712E+00
  0.7634E+00
  0.8454E+00
  0.9063E+00
  0.9244E+00
  0.9199E+00
  0.9235E+00
  0.9864E+00
  0.1090E+01
  0.1192E+01
  0.1173E+01
  0.1238E+01
  0.2608E+01
  0.2608E+01
  0.2608E+01
  0.2608E+01
  0.2608E+01
  0.2606E+01
  0.2602E+01
  0.2591E+01
  0.2566E+01
  0.2522E+01
  0.2457E+01
  0.2377E+01
  0.2289E+01
  0.2197E+01
  0.2106E+01
  0.2016E+01
  0.1929E+01
  0.1844E+01
  0.1763E+01
  0.1684E+01
  0.1608E+01
  0.1535E+01
  0.1466E+01
  0.1399E+01
  0.1335E+01
  0.1273E+01
  0.1214E+01
  0.1158E+01
  0.1103E+01
  0.1051E+01
  0.1001E+01
  0.9533E+00
  0.9072E+00
  0.8630E+00
  0.8206E+00
  0.7799E+00
  0.7411E+00
  0.7041E+00
  0.6688E+00
  0.6353E+00
  0.6029E+00
  0.5717E+00
  0.5393E+00
  0.5106E+00
  0.5084E+00
  0.5238E+00
  0.5712E+00
  0.6469E+00
  0.7353E+00
  0.8183E+00
  0.8859E+00
  0.9139E+00
  0.9118E+00
  0.8746E+00
  0.8119E+00
  0.8421E+00
  0.9760E+00
  0.1153E+01
  0.1155E+01
  0.1200E+01
  0.2522E+01
  0.2522E+01
  0.2522E+01
  0.2521E+01
  0.2521E+01
  0.2520E+01
  0.2516E+01
  0.2506E+01
  0.2484E+01
  0.2443E+01
  0.2383E+01
  0.2306E+01
  0.2220E+01
  0.2130E+01
  0.2041E+01
  0.1952E+01
  0.1867E+01
  0.1783E+01
  0.1703E+01
  0.1625E+01
  0.1551E+01
  0.1479E+01
  0.1411E+01
  0.1345E+01
  0.1282E+01
  0.1222E+01
  0.1164E+01
  0.1109E+01
  0.1056E+01
  0.1005E+01
  0.9560E+00
  0.9093E+00
  0.8645E+00
  0.8216E+00
  0.7805E+00
  0.7412E+00
  0.7037E+00
  0.6680E+00
  0.6341E+00
  0.6014E+00
  0.5701E+00
  0.5376E+00
  0.5080E+00
  0.5046E+00
  0.5165E+00
  0.5574E+00
  0.6255E+00
  0.7104E+00
  0.7958E+00
  0.8693E+00
  0.9038E+00
  0.9037E+00
  0.8726E+00
  0.7713E+00
  0.6809E+00
  0.7156E+00
  0.8863E+00
  0.1115E+01
  0.1153E+01
  0.1166E+01
  0.2428E+01
  0.2428E+01
  0.2428E+01
  0.2428E+01
  0.2428E+01
  0.2427E+01
  0.2424E+01
  0.2415E+01
  0.2395E+01
  0.2358E+01
  0.2301E+01
  0.2228E+01
  0.2145E+01
  0.2058E+01
  0.1970E+01
  0.1884E+01
  0.1800E+01
  0.1718E+01
  0.1639E+01
  0.1564E+01
  0.1491E+01
  0.1421E+01
  0.1354E+01
  0.1290E+01
  0.1228E+01
  0.1169E+01
  0.1113E+01
  0.1059E+01
  0.1008E+01
  0.9585E+00
  0.9113E+00
  0.8661E+00
  0.8228E+00
  0.7813E+00
  0.7417E+00
  0.7038E+00
  0.6678E+00
  0.6335E+00
  0.6005E+00
  0.5689E+00
  0.5366E+00
  0.5068E+00
  0.5028E+00
  0.5132E+00
  0.5527E+00
  0.6150E+00
  0.6906E+00
  0.7712E+00
  0.8466E+00
  0.8910E+00
  0.8939E+00
  0.8638E+00
  0.7624E+00
  0.6428E+00
  0.5745E+00
  0.6229E+00
  0.8095E+00
  0.1067E+01
  0.1159E+01
  0.1145E+01
  0.2331E+01
  0.2331E+01
  0.2331E+01
  0.2331E+01
  0.2331E+01
  0.2330E+01
  0.2327E+01
  0.2320E+01
  0.2303E+01
  0.2269E+01
  0.2216E+01
  0.2147E+01
  0.2067E+01
  0.1983E+01
  0.1898E+01
  0.1814E+01
  0.1732E+01
  0.1652E+01
  0.1575E+01
  0.1501E+01
  0.1430E+01
  0.1362E+01
  0.1297E+01
  0.1235E+01
  0.1175E+01
  0.1118E+01
  0.1063E+01
  0.1011E+01
  0.9614E+00
  0.9137E+00
  0.8681E+00
  0.8244E+00
  0.7826E+00
  0.7427E+00
  0.7045E+00
  0.6681E+00
  0.6335E+00
  0.6001E+00
  0.5683E+00
  0.5355E+00
  0.5058E+00
  0.5017E+00
  0.5106E+00
  0.5473E+00
  0.6102E+00
  0.6878E+00
  0.7657E+00
  0.8366E+00
  0.8779E+00
  0.8811E+00
  0.8505E+00
  0.7470E+00
  0.6298E+00
  0.5373E+00
  0.5173E+00
  0.5663E+00
  0.7432E+00
  0.1002E+01
  0.1160E+01
  0.1142E+01
  0.2233E+01
  0.2233E+01
  0.2233E+01
  0.2233E+01
  0.2233E+01
  0.2232E+01
  0.2230E+01
  0.2224E+01
  0.2209E+01
  0.2179E+01
  0.2130E+01
  0.2065E+01
  0.1988E+01
  0.1907E+01
  0.1825E+01
  0.1743E+01
  0.1664E+01
  0.1586E+01
  0.1512E+01
  0.1440E+01
  0.1371E+01
  0.1305E+01
  0.1241E+01
  0.1181E+01
  0.1123E+01
  0.1068E+01
  0.1015E+01
  0.9649E+00
  0.9167E+00
  0.8707E+00
  0.8266E+00
  0.7845E+00
  0.7443E+00
  0.7058E+00
  0.6691E+00
  0.6341E+00
  0.6005E+00
  0.5682E+00
  0.5348E+00
  0.5045E+00
  0.5006E+00
  0.5096E+00
  0.5431E+00
  0.5984E+00
  0.6715E+00
  0.7530E+00
  0.8342E+00
  0.8788E+00
  0.8778E+00
  0.8389E+00
  0.7309E+00
  0.6130E+00
  0.5295E+00
  0.4941E+00
  0.4967E+00
  0.5380E+00
  0.6865E+00
  0.9198E+00
  0.1133E+01
  0.1156E+01
  0.2137E+01
  0.2137E+01
  0.2137E+01
  0.2136E+01
  0.2136E+01
  0.2136E+01
  0.2134E+01
  0.2129E+01
  0.2116E+01
  0.2089E+01
  0.2045E+01
  0.1984E+01
  0.1911E+01
  0.1833E+01
  0.1753E+01
  0.1674E+01
  0.1597E+01
  0.1522E+01
  0.1450E+01
  0.1380E+01
  0.1313E+01
  0.1249E+01
  0.1188E+01
  0.1129E+01
  0.1074E+01
  0.1020E+01
  0.9693E+00
  0.9206E+00
  0.8740E+00
  0.8296E+00
  0.7871E+00
  0.7465E+00
  0.7077E+00
  0.6707E+00
  0.6354E+00
  0.6014E+00
  0.5688E+00
  0.5355E+00
  0.5054E+00
  0.5003E+00
  0.5085E+00
  0.5441E+00
  0.6001E+00
  0.6666E+00
  0.7379E+00
  0.8096E+00
  0.8647E+00
  0.8711E+00
  0.8363E+00
  0.7216E+00
  0.6021E+00
  0.5231E+00
  0.4958E+00
  0.4931E+00
  0.4981E+00
  0.5287E+00
  0.6346E+00
  0.8278E+00
  0.1051E+01
  0.1200E+01
  0.2043E+01
  0.2043E+01
  0.2043E+01
  0.2043E+01
  0.2043E+01
  0.2043E+01
  0.2041E+01
  0.2037E+01
  0.2026E+01
  0.2003E+01
  0.1962E+01
  0.1905E+01
  0.1836E+01
  0.1761E+01
  0.1684E+01
  0.1608E+01
  0.1533E+01
  0.1461E+01
  0.1390E+01
  0.1323E+01
  0.1258E+01
  0.1196E+01
  0.1137E+01
  0.1080E+01
  0.1026E+01
  0.9746E+00
  0.9253E+00
  0.8782E+00
  0.8333E+00
  0.7904E+00
  0.7494E+00
  0.7103E+00
  0.6729E+00
  0.6373E+00
  0.6029E+00
  0.5700E+00
  0.5362E+00
  0.5062E+00
  0.5013E+00
  0.5101E+00
  0.5437E+00
  0.6019E+00
  0.6732E+00
  0.7436E+00
  0.8117E+00
  0.8586E+00
  0.8628E+00
  0.8275E+00
  0.7144E+00
  0.5973E+00
  0.5238E+00
  0.5007E+00
  0.4972E+00
  0.5005E+00
  0.5115E+00
  0.5319E+00
  0.5926E+00
  0.7337E+00
  0.9225E+00
  0.1235E+01
  0.1954E+01
  0.1954E+01
  0.1954E+01
  0.1954E+01
  0.1954E+01
  0.1953E+01
  0.1952E+01
  0.1949E+01
  0.1939E+01
  0.1919E+01
  0.1882E+01
  0.1830E+01
  0.1764E+01
  0.1692E+01
  0.1618E+01
  0.1544E+01
  0.1472E+01
  0.1402E+01
  0.1334E+01
  0.1268E+01
  0.1206E+01
  0.1145E+01
  0.1088E+01
  0.1033E+01
  0.9810E+00
  0.9311E+00
  0.8834E+00
  0.8380E+00
  0.7946E+00
  0.7531E+00
  0.7136E+00
  0.6759E+00
  0.6398E+00
  0.6050E+00
  0.5718E+00
  0.5370E+00
  0.5065E+00
  0.5018E+00
  0.5102E+00
  0.5440E+00
  0.5997E+00
  0.6710E+00
  0.7477E+00
  0.8221E+00
  0.8667E+00
  0.8661E+00
  0.8281E+00
  0.7133E+00
  0.5959E+00
  0.5262E+00
  0.5077E+00
  0.5039E+00
  0.5079E+00
  0.5177E+00
  0.5279E+00
  0.5382E+00
  0.5670E+00
  0.6532E+00
  0.7838E+00
  0.1196E+01
  0.1868E+01
  0.1868E+01
  0.1868E+01
  0.1868E+01
  0.1868E+01
  0.1868E+01
  0.1867E+01
  0.1864E+01
  0.1856E+01
  0.1839E+01
  0.1806E+01
  0.1757E+01
  0.1695E+01
  0.1627E+01
  0.1555E+01
  0.1484E+01
  0.1414E+01
  0.1346E+01
  0.1280E+01
  0.1216E+01
  0.1156E+01
  0.1097E+01
  0.1042E+01
  0.9886E+00
  0.9380E+00
  0.8897E+00
  0.8436E+00
  0.7997E+00
  0.7577E+00
  0.7177E+00
  0.6795E+00
  0.6430E+00
  0.6078E+00
  0.5741E+00
  0.5390E+00
  0.5083E+00
  0.5025E+00
  0.5112E+00
  0.5433E+00
  0.5969E+00
  0.6654E+00
  0.7399E+00
  0.8178E+00
  0.8733E+00
  0.8734E+00
  0.8375E+00
  0.7207E+00
  0.6003E+00
  0.5313E+00
  0.5150E+00
  0.5119E+00
  0.5166E+00
  0.5251E+00
  0.5326E+00
  0.5388E+00
  0.5456E+00
  0.5584E+00
  0.5949E+00
  0.6544E+00
  0.9816E+00
  0.1787E+01
  0.1787E+01
  0.1787E+01
  0.1787E+01
  0.1787E+01
  0.1787E+01
  0.1786E+01
  0.1784E+01
  0.1777E+01
  0.1762E+01
  0.1733E+01
  0.1688E+01
  0.1630E+01
  0.1564E+01
  0.1495E+01
  0.1426E+01
  0.1358E+01
  0.1292E+01
  0.1228E+01
  0.1167E+01
  0.1108E+01
  0.1052E+01
  0.9977E+00
  0.9463E+00
  0.8972E+00
  0.8505E+00
  0.8059E+00
  0.7634E+00
  0.7228E+00
  0.6840E+00
  0.6469E+00
  0.6113E+00
  0.5769E+00
  0.5414E+00
  0.5112E+00
  0.5049E+00
  0.5141E+00
  0.5497E+00
  0.6024E+00
  0.6641E+00
  0.7336E+00
  0.8075E+00
  0.8624E+00
  0.8729E+00
  0.8437E+00
  0.7305E+00
  0.6083E+00
  0.5376E+00
  0.5220E+00
  0.5195E+00
  0.5244E+00
  0.5321E+00
  0.5375E+00
  0.5414E+00
  0.5467E+00
  0.5524E+00
  0.5518E+00
  0.5287E+00
  0.4853E+00
  0.6237E+00
  0.1710E+01
  0.1710E+01
  0.1710E+01
  0.1710E+01
  0.1710E+01
  0.1710E+01
  0.1710E+01
  0.1708E+01
  0.1702E+01
  0.1689E+01
  0.1663E+01
  0.1622E+01
  0.1567E+01
  0.1505E+01
  0.1439E+01
  0.1372E+01
  0.1306E+01
  0.1242E+01
  0.1180E+01
  0.1121E+01
  0.1063E+01
  0.1009E+01
  0.9564E+00
  0.9066E+00
  0.8591E+00
  0.8137E+00
  0.7705E+00
  0.7292E+00
  0.6898E+00
  0.6520E+00
  0.6159E+00
  0.5806E+00
  0.5447E+00
  0.5154E+00
  0.5084E+00
  0.5177E+00
  0.5514E+00
  0.6114E+00
  0.6811E+00
  0.7424E+00
  0.8032E+00
  0.8530E+00
  0.8631E+00
  0.8354E+00
  0.7303E+00
  0.6128E+00
  0.5431E+00
  0.5279E+00
  0.5261E+00
  0.5308E+00
  0.5377E+00
  0.5415E+00
  0.5437E+00
  0.5478E+00
  0.5529E+00
  0.5516E+00
  0.5233E+00
  0.4473E+00
  0.3550E+00
  0.3765E+00
  0.1640E+01
  0.1640E+01
  0.1640E+01
  0.1640E+01
  0.1640E+01
  0.1640E+01
  0.1639E+01
  0.1638E+01
  0.1633E+01
  0.1622E+01
  0.1599E+01
  0.1561E+01
  0.1510E+01
  0.1451E+01
  0.1387E+01
  0.1323E+01
  0.1259E+01
  0.1197E+01
  0.1137E+01
  0.1079E+01
  0.1023E+01
  0.9701E+00
  0.9192E+00
  0.8707E+00
  0.8244E+00
  0.7802E+00
  0.7380E+00
  0.6978E+00
  0.6593E+00
  0.6222E+00
  0.5856E+00
  0.5487E+00
  0.5232E+00
  0.5141E+00
  0.5243E+00
  0.5589E+00
  0.6113E+00
  0.6831E+00
  0.7608E+00
  0.8276E+00
  0.8599E+00
  0.8586E+00
  0.8266E+00
  0.7229E+00
  0.6102E+00
  0.5439E+00
  0.5311E+00
  0.5307E+00
  0.5353E+00
  0.5414E+00
  0.5442E+00
  0.5454E+00
  0.5486E+00
  0.5531E+00
  0.5518E+00
  0.5261E+00
  0.4511E+00
  0.3677E+00
  0.2932E+00
  0.2732E+00
  0.1580E+01
  0.1580E+01
  0.1580E+01
  0.1580E+01
  0.1580E+01
  0.1580E+01
  0.1580E+01
  0.1579E+01
  0.1575E+01
  0.1565E+01
  0.1545E+01
  0.1510E+01
  0.1463E+01
  0.1406E+01
  0.1344E+01
  0.1282E+01
  0.1220E+01
  0.1159E+01
  0.1101E+01
  0.1044E+01
  0.9901E+00
  0.9380E+00
  0.8882E+00
  0.8406E+00
  0.7951E+00
  0.7516E+00
  0.7100E+00
  0.6700E+00
  0.6313E+00
  0.5932E+00
  0.5596E+00
  0.5376E+00
  0.5257E+00
  0.5350E+00
  0.5716E+00
  0.6281E+00
  0.6888E+00
  0.7575E+00
  0.8332E+00
  0.8768E+00
  0.8691E+00
  0.8259E+00
  0.7160E+00
  0.6042E+00
  0.5413E+00
  0.5305E+00
  0.5321E+00
  0.5377E+00
  0.5432E+00
  0.5455E+00
  0.5462E+00
  0.5487E+00
  0.5529E+00
  0.5516E+00
  0.5256E+00
  0.4519E+00
  0.3694E+00
  0.3017E+00
  0.2522E+00
  0.2281E+00
  0.1534E+01
  0.1534E+01
  0.1534E+01
  0.1534E+01
  0.1534E+01
  0.1534E+01
  0.1534E+01
  0.1532E+01
  0.1529E+01
  0.1521E+01
  0.1503E+01
  0.1471E+01
  0.1427E+01
  0.1372E+01
  0.1313E+01
  0.1252E+01
  0.1191E+01
  0.1132E+01
  0.1074E+01
  0.1018E+01
  0.9650E+00
  0.9136E+00
  0.8646E+00
  0.8173E+00
  0.7718E+00
  0.7279E+00
  0.6859E+00
  0.6463E+00
  0.6104E+00
  0.5800E+00
  0.5557E+00
  0.5429E+00
  0.5531E+00
  0.5887E+00
  0.6461E+00
  0.7137E+00
  0.7724E+00
  0.8283E+00
  0.8740E+00
  0.8754E+00
  0.8362E+00
  0.7159E+00
  0.5993E+00
  0.5367E+00
  0.5270E+00
  0.5303E+00
  0.5377E+00
  0.5437E+00
  0.5456E+00
  0.5463E+00
  0.5486E+00
  0.5524E+00
  0.5510E+00
  0.5248E+00
  0.4511E+00
  0.3692E+00
  0.3023E+00
  0.2542E+00
  0.2233E+00
  0.2085E+00
  0.1515E+01
  0.1515E+01
  0.1515E+01
  0.1515E+01
  0.1515E+01
  0.1515E+01
  0.1515E+01
  0.1514E+01
  0.1512E+01
  0.1505E+01
  0.1490E+01
  0.1462E+01
  0.1420E+01
  0.1367E+01
  0.1308E+01
  0.1247E+01
  0.1187E+01
  0.1127E+01
  0.1068E+01
  0.1011E+01
  0.9564E+00
  0.9037E+00
  0.8531E+00
  0.8050E+00
  0.7594E+00
  0.7167E+00
  0.6772E+00
  0.6409E+00
  0.6081E+00
  0.5817E+00
  0.5689E+00
  0.5796E+00
  0.6162E+00
  0.6708E+00
  0.7336E+00
  0.7976E+00
  0.8505E+00
  0.8754E+00
  0.8742E+00
  0.8354E+00
  0.7189E+00
  0.5983E+00
  0.5322E+00
  0.5219E+00
  0.5262E+00
  0.5357E+00
  0.5433E+00
  0.5456E+00
  0.5462E+00
  0.5483E+00
  0.5518E+00
  0.5502E+00
  0.5235E+00
  0.4499E+00
  0.3683E+00
  0.3017E+00
  0.2541E+00
  0.2234E+00
  0.2074E+00
  0.2017E+00
  0.1515E+01
  0.1515E+01
  0.1515E+01
  0.1515E+01
  0.1515E+01
  0.1514E+01
  0.1514E+01
  0.1514E+01
  0.1511E+01
  0.1505E+01
  0.1490E+01
  0.1463E+01
  0.1422E+01
  0.1370E+01
  0.1312E+01
  0.1252E+01
  0.1191E+01
  0.1130E+01
  0.1071E+01
  0.1013E+01
  0.9575E+00
  0.9042E+00
  0.8532E+00
  0.8049E+00
  0.7595E+00
  0.7172E+00
  0.6782E+00
  0.6435E+00
  0.6161E+00
  0.6050E+00
  0.6170E+00
  0.6533E+00
  0.7063E+00
  0.7633E+00
  0.8172E+00
  0.8690E+00
  0.8938E+00
  0.8815E+00
  0.8364E+00
  0.7211E+00
  0.5987E+00
  0.5284E+00
  0.5153E+00
  0.5204E+00
  0.5315E+00
  0.5417E+00
  0.5457E+00
  0.5463E+00
  0.5482E+00
  0.5515E+00
  0.5496E+00
  0.5226E+00
  0.4490E+00
  0.3673E+00
  0.3009E+00
  0.2535E+00
  0.2230E+00
  0.2073E+00
  0.2015E+00
  0.2002E+00
  0.1520E+01
  0.1520E+01
  0.1520E+01
  0.1520E+01
  0.1520E+01
  0.1520E+01
  0.1520E+01
  0.1519E+01
  0.1517E+01
  0.1512E+01
  0.1500E+01
  0.1475E+01
  0.1437E+01
  0.1386E+01
  0.1329E+01
  0.1267E+01
  0.1205E+01
  0.1143E+01
  0.1082E+01
  0.1023E+01
  0.9665E+00
  0.9119E+00
  0.8602E+00
  0.8118E+00
  0.7667E+00
  0.7253E+00
  0.6891E+00
  0.6625E+00
  0.6546E+00
  0.6668E+00
  0.7010E+00
  0.7491E+00
  0.8000E+00
  0.8453E+00
  0.8847E+00
  0.9040E+00
  0.8956E+00
  0.8507E+00
  0.7309E+00
  0.6023E+00
  0.5239E+00
  0.5076E+00
  0.5128E+00
  0.5250E+00
  0.5378E+00
  0.5446E+00
  0.5466E+00
  0.5488E+00
  0.5519E+00
  0.5497E+00
  0.5216E+00
  0.4481E+00
  0.3667E+00
  0.3003E+00
  0.2529E+00
  0.2227E+00
  0.2071E+00
  0.2015E+00
  0.2002E+00
  0.2000E+00
  0.1538E+01
  0.1538E+01
  0.1538E+01
  0.1538E+01
  0.1538E+01
  0.1538E+01
  0.1538E+01
  0.1537E+01
  0.1536E+01
  0.1531E+01
  0.1520E+01
  0.1498E+01
  0.1461E+01
  0.1412E+01
  0.1353E+01
  0.1290E+01
  0.1225E+01
  0.1162E+01
  0.1099E+01
  0.1039E+01
  0.9810E+00
  0.9261E+00
  0.8746E+00
  0.8269E+00
  0.7837E+00
  0.7473E+00
  0.7219E+00
  0.7153E+00
  0.7270E+00
  0.7570E+00
  0.7974E+00
  0.8394E+00
  0.8771E+00
  0.9066E+00
  0.9143E+00
  0.9045E+00
  0.8628E+00
  0.7477E+00
  0.6136E+00
  0.5230E+00
  0.5005E+00
  0.5042E+00
  0.5163E+00
  0.5317E+00
  0.5415E+00
  0.5458E+00
  0.5492E+00
  0.5527E+00
  0.5505E+00
  0.5225E+00
  0.4479E+00
  0.3658E+00
  0.2998E+00
  0.2527E+00
  0.2225E+00
  0.2070E+00
  0.2015E+00
  0.2002E+00
  0.2000E+00
  0.2000E+00
  0.1562E+01
  0.1562E+01
  0.1562E+01
  0.1562E+01
  0.1562E+01
  0.1562E+01
  0.1562E+01
  0.1562E+01
  0.1560E+01
  0.1556E+01
  0.1547E+01
  0.1526E+01
  0.1490E+01
  0.1440E+01
  0.1380E+01
  0.1315E+01
  0.1248E+01
  0.1182E+01
  0.1118E+01
  0.1056E+01
  0.9976E+00
  0.9432E+00
  0.8932E+00
  0.8486E+00
  0.8120E+00
  0.7873E+00
  0.7809E+00
  0.7912E+00
  0.8159E+00
  0.8482E+00
  0.8815E+00
  0.9092E+00
  0.9258E+00
  0.9240E+00
  0.9130E+00
  0.8717E+00
  0.7628E+00
  0.6300E+00
  0.5302E+00
  0.4955E+00
  0.4972E+00
  0.5074E+00
  0.5244E+00
  0.5370E+00
  0.5435E+00
  0.5486E+00
  0.5532E+00
  0.5513E+00
  0.5239E+00
  0.4491E+00
  0.3666E+00
  0.2997E+00
  0.2525E+00
  0.2224E+00
  0.2070E+00
  0.2014E+00
  0.2002E+00
  0.2000E+00
  0.2000E+00
  0.2000E+00
  0.1584E+01
  0.1584E+01
  0.1584E+01
  0.1584E+01
  0.1584E+01
  0.1584E+01
  0.1584E+01
  0.1584E+01
  0.1583E+01
  0.1579E+01
  0.1570E+01
  0.1550E+01
  0.1516E+01
  0.1465E+01
  0.1404E+01
  0.1336E+01
  0.1267E+01
  0.1199E+01
  0.1133E+01
  0.1071E+01
  0.1013E+01
  0.9614E+00
  0.9158E+00
  0.8790E+00
  0.8545E+00
  0.8470E+00
  0.8545E+00
  0.8738E+00
  0.8985E+00
  0.9225E+00
  0.9378E+00
  0.9392E+00
  0.9326E+00
  0.9189E+00
  0.8757E+00
  0.7727E+00
  0.6450E+00
  0.5413E+00
  0.4946E+00
  0.4933E+00
  0.5000E+00
  0.5174E+00
  0.5323E+00
  0.5408E+00
  0.5472E+00
  0.5529E+00
  0.5517E+00
  0.5251E+00
  0.4502E+00
  0.3674E+00
  0.3002E+00
  0.2526E+00
  0.2224E+00
  0.2070E+00
  0.2014E+00
  0.2002E+00
  0.2000E+00
  0.2000E+00
  0.2000E+00
  0.2000E+00
  0.1599E+01
  0.1599E+01
  0.1599E+01
  0.1599E+01