# vtk DataFile Version 3.0
vtk output
ASCII
DATASET RECTILINEAR_GRID
DIMENSIONS          61          61 1
X_COORDINATES    61 double
  0.0000E+00
  0.1667E+00
  0.3333E+00
  0.5000E+00
  0.6667E+00
  0.8333E+00
  0.1000E+01
  0.1167E+01
  0.1333E+01
  0.1500E+01
  0.1667E+01
  0.1833E+01
  0.2000E+01
  0.2167E+01
  0.2333E+01
  0.2500E+01
  0.2667E+01
  0.2833E+01
  0.3000E+01
  0.3167E+01
  0.3333E+01
  0.3500E+01
  0.3667E+01
  0.3833E+01
  0.4000E+01
  0.4167E+01
  0.4333E+01
  0.4500E+01
  0.4667E+01
  0.4833E+01
  0.5000E+01
  0.5167E+01
  0.5333E+01
  0.5500E+01
  0.5667E+01
  0.5833E+01
  0.6000E+01
  0.6167E+01
  0.6333E+01
  0.6500E+01
  0.6667E+01
  0.6833E+01
  0.7000E+01
  0.7167E+01
  0.7333E+01
  0.7500E+01
  0.7667E+01
  0.7833E+01
  0.8000E+01
  0.8167E+01
  0.8333E+01
  0.8500E+01
  0.8667E+01
  0.8833E+01
  0.9000E+01
  0.9167E+01
  0.9333E+01
  0.9500E+01
  0.9667E+01
  0.9833E+01
  0.1000E+02
Y_COORDINATES    61 double
  0.0000E+00
  0.1667E+00
  0.3333E+00
  0.5000E+00
  0.6667E+00
  0.8333E+00
  0.1000E+01
  0.1167E+01
  0.1333E+01
  0.1500E+01
  0.1667E+01
  0.1833E+01
  0.2000E+01
  0.2167E+01
  0.2333E+01
  0.2500E+01
  0.2667E+01
  0.2833E+01
  0.3000E+01
  0.3167E+01
  0.3333E+01
  0.3500E+01
  0.3667E+01
  0.3833E+01
  0.4000E+01
  0.4167E+01
  0.4333E+01
  0.4500E+01
  0.4667E+01
  0.4833E+01
  0.5000E+01
  0.5167E+01
  0.5333E+01
  0.5500E+01
  0.5667E+01
  0.5833E+01
  0.6000E+01
  0.6167E+01
  0.6333E+01
  0.6500E+01
  0.6667E+01
  0.6833E+01
  0.7000E+01
  0.7167E+01
  0.7333E+01
  0.7500E+01
  0.7667E+01
  0.7833E+01
  0.8000E+01
  0.8167E+01
  0.8333E+01
  0.8500E+01
  0.8667E+01
  0.8833E+01
  0.9000E+01
  0.9167E+01
  0.9333E+01
  0.9500E+01
  0.9667E+01
  0.9833E+01
  0.1000E+02
Z_COORDINATES 1 double
0
CELL_DATA                 3600
FIELD FieldData 4
density 1                 3600 double
  0.9701E+00
  0.9700E+00
  0.9694E+00
  0.9676E+00
  0.9632E+00
  0.9543E+00
  0.9393E+00
  0.9182E+00
  0.8927E+00
  0.8649E+00
  0.8362E+00
  0.8076E+00
  0.7794E+00
  0.7518E+00
  0.7250E+00
  0.6990E+00
  0.6737E+00
  0.6494E+00
  0.6260E+00
  0.6034E+00
  0.5818E+00
  0.5610E+00
  0.5410E+00
  0.5219E+00
  0.5036E+00
  0.4860E+00
  0.4692E+00
  0.4531E+00
  0.4376E+00
  0.4228E+00
  0.4087E+00
  0.3952E+00
  0.3824E+00
  0.3703E+00
  0.3588E+00
  0.3480E+00
  0.3380E+00
  0.3289E+00
  0.3214E+00
  0.3160E+00
  0.3145E+00
  0.3153E+00
  0.3192E+00
  0.3245E+00
  0.3298E+00
  0.3341E+00
  0.3384E+00
  0.3440E+00
  0.3528E+00
  0.3667E+00
  0.3872E+00
  0.4136E+00
  0.4409E+00
  0.4580E+00
  0.4947E+00
  0.5992E+00
  0.7806E+00
  0.9530E+00
  0.1007E+01
  0.9415E+00
  0.9698E+00
  0.9696E+00
  0.9691E+00
  0.9673E+00
  0.9630E+00
  0.9541E+00
  0.9391E+00
  0.9180E+00
  0.8925E+00
  0.8647E+00
  0.8360E+00
  0.8074E+00
  0.7792E+00
  0.7517E+00
  0.7248E+00
  0.6988E+00
  0.6736E+00
  0.6492E+00
  0.6258E+00
  0.6032E+00
  0.5816E+00
  0.5608E+00
  0.5409E+00
  0.5217E+00
  0.5034E+00
  0.4859E+00
  0.4690E+00
  0.4529E+00
  0.4375E+00
  0.4227E+00
  0.4086E+00
  0.3951E+00
  0.3823E+00
  0.3701E+00
  0.3587E+00
  0.3479E+00
  0.3378E+00
  0.3288E+00
  0.3212E+00
  0.3158E+00
  0.3143E+00
  0.3150E+00
  0.3189E+00
  0.3242E+00
  0.3296E+00
  0.3341E+00
  0.3387E+00
  0.3447E+00
  0.3543E+00
  0.3691E+00
  0.3904E+00
  0.4169E+00
  0.4437E+00
  0.4601E+00
  0.4957E+00
  0.5988E+00
  0.7791E+00
  0.9531E+00
  0.1006E+01
  0.9439E+00
  0.9692E+00
  0.9690E+00
  0.9684E+00
  0.9667E+00
  0.9624E+00
  0.9535E+00
  0.9386E+00
  0.9176E+00
  0.8921E+00
  0.8643E+00
  0.8357E+00
  0.8071E+00
  0.7789E+00
  0.7513E+00
  0.7245E+00
  0.6984E+00
  0.6732E+00
  0.6489E+00
  0.6255E+00
  0.6029E+00
  0.5812E+00
  0.5605E+00
  0.5405E+00
  0.5214E+00
  0.5031E+00
  0.4855E+00
  0.4687E+00
  0.4526E+00
  0.4371E+00
  0.4224E+00
  0.4082E+00
  0.3948E+00
  0.3819E+00
  0.3698E+00
  0.3583E+00
  0.3475E+00
  0.3375E+00
  0.3284E+00
  0.3208E+00
  0.3154E+00
  0.3138E+00
  0.3145E+00
  0.3183E+00
  0.3237E+00
  0.3291E+00
  0.3341E+00
  0.3393E+00
  0.3464E+00
  0.3576E+00
  0.3743E+00
  0.3969E+00
  0.4235E+00
  0.4492E+00
  0.4641E+00
  0.4972E+00
  0.5978E+00
  0.7762E+00
  0.9488E+00
  0.1002E+01
  0.9475E+00
  0.9682E+00
  0.9681E+00
  0.9675E+00
  0.9658E+00
  0.9615E+00
  0.9527E+00
  0.9379E+00
  0.9170E+00
  0.8916E+00
  0.8638E+00
  0.8351E+00
  0.8065E+00
  0.7784E+00
  0.7508E+00
  0.7240E+00
  0.6979E+00
  0.6727E+00
  0.6484E+00
  0.6249E+00
  0.6024E+00
  0.5807E+00
  0.5600E+00
  0.5400E+00
  0.5209E+00
  0.5026E+00
  0.4850E+00
  0.4682E+00
  0.4521E+00
  0.4366E+00
  0.4219E+00
  0.4077E+00
  0.3942E+00
  0.3814E+00
  0.3693E+00
  0.3578E+00
  0.3470E+00
  0.3370E+00
  0.3279E+00
  0.3203E+00
  0.3147E+00
  0.3131E+00
  0.3138E+00
  0.3175E+00
  0.3229E+00
  0.3286E+00
  0.3342E+00
  0.3404E+00
  0.3495E+00
  0.3633E+00
  0.3828E+00
  0.4072E+00
  0.4339E+00
  0.4579E+00
  0.4702E+00
  0.4993E+00
  0.5953E+00
  0.7705E+00
  0.9465E+00
  0.9993E+00
  0.9510E+00
  0.9670E+00
  0.9668E+00
  0.9662E+00
  0.9646E+00
  0.9603E+00
  0.9517E+00
  0.9369E+00
  0.9161E+00
  0.8908E+00
  0.8630E+00
  0.8344E+00
  0.8058E+00
  0.7776E+00
  0.7501E+00
  0.7233E+00
  0.6972E+00
  0.6720E+00
  0.6477E+00
  0.6242E+00
  0.6017E+00
  0.5800E+00
  0.5593E+00
  0.5393E+00
  0.5202E+00
  0.5019E+00
  0.4843E+00
  0.4675E+00
  0.4514E+00
  0.4359E+00
  0.4212E+00
  0.4070E+00
  0.3935E+00
  0.3807E+00
  0.3686E+00
  0.3571E+00
  0.3463E+00
  0.3362E+00
  0.3271E+00
  0.3195E+00
  0.3139E+00
  0.3120E+00
  0.3127E+00
  0.3163E+00
  0.3218E+00
  0.3279E+00
  0.3344E+00
  0.3427E+00
  0.3549E+00
  0.3726E+00
  0.3956E+00
  0.4218E+00
  0.4481E+00
  0.4691E+00
  0.4776E+00
  0.5014E+00
  0.5915E+00
  0.7635E+00
  0.9405E+00
  0.9909E+00
  0.9520E+00
  0.9653E+00
  0.9652E+00
  0.9646E+00
  0.9630E+00
  0.9588E+00
  0.9502E+00
  0.9356E+00
  0.9150E+00
  0.8897E+00
  0.8620E+00
  0.8334E+00
  0.8049E+00
  0.7767E+00
  0.7491E+00
  0.7223E+00
  0.6963E+00
  0.6711E+00
  0.6468E+00
  0.6233E+00
  0.6008E+00
  0.5791E+00
  0.5584E+00
  0.5384E+00
  0.5193E+00
  0.5010E+00
  0.4834E+00
  0.4666E+00
  0.4505E+00
  0.4350E+00
  0.4203E+00
  0.4061E+00
  0.3926E+00
  0.3798E+00
  0.3676E+00
  0.3562E+00
  0.3454E+00
  0.3353E+00
  0.3262E+00
  0.3185E+00
  0.3128E+00
  0.3107E+00
  0.3114E+00
  0.3150E+00
  0.3205E+00
  0.3272E+00
  0.3354E+00
  0.3468E+00
  0.3638E+00
  0.3868E+00
  0.4136E+00
  0.4403E+00
  0.4647E+00
  0.4811E+00
  0.4849E+00
  0.5036E+00
  0.5856E+00
  0.7538E+00
  0.9342E+00
  0.9860E+00
  0.9557E+00
  0.9633E+00
  0.9631E+00
  0.9626E+00
  0.9610E+00
  0.9569E+00
  0.9485E+00
  0.9341E+00
  0.9135E+00
  0.8884E+00
  0.8608E+00
  0.8322E+00
  0.8037E+00
  0.7755E+00
  0.7480E+00
  0.7212E+00
  0.6951E+00
  0.6699E+00
  0.6456E+00
  0.6222E+00
  0.5996E+00
  0.5780E+00
  0.5572E+00
  0.5373E+00
  0.5182E+00
  0.4999E+00
  0.4823E+00
  0.4655E+00
  0.4494E+00
  0.4339E+00
  0.4192E+00
  0.4050E+00
  0.3915E+00
  0.3787E+00
  0.3665E+00
  0.3550E+00
  0.3442E+00
  0.3341E+00
  0.3250E+00
  0.3172E+00
  0.3114E+00
  0.3091E+00
  0.3098E+00
  0.3134E+00
  0.3191E+00
  0.3270E+00
  0.3382E+00
  0.3552E+00
  0.3790E+00
  0.4072E+00
  0.4350E+00
  0.4599E+00
  0.4819E+00
  0.4929E+00
  0.4920E+00
  0.5050E+00
  0.5769E+00
  0.7426E+00
  0.9292E+00
  0.9845E+00
  0.9606E+00
  0.9608E+00
  0.9607E+00
  0.9602E+00
  0.9586E+00
  0.9547E+00
  0.9464E+00
  0.9322E+00
  0.9118E+00
  0.8868E+00
  0.8593E+00
  0.8308E+00
  0.8022E+00
  0.7741E+00
  0.7465E+00
  0.7197E+00
  0.6937E+00
  0.6685E+00
  0.6442E+00
  0.6208E+00
  0.5983E+00
  0.5766E+00
  0.5558E+00
  0.5359E+00
  0.5168E+00
  0.4985E+00
  0.4810E+00
  0.4641E+00
  0.4480E+00
  0.4326E+00
  0.4178E+00
  0.4037E+00
  0.3902E+00
  0.3773E+00
  0.3651E+00
  0.3536E+00
  0.3428E+00
  0.3327E+00
  0.3235E+00
  0.3156E+00
  0.3097E+00
  0.3071E+00
  0.3079E+00
  0.3116E+00
  0.3179E+00
  0.3281E+00
  0.3455E+00
  0.3700E+00
  0.3995E+00
  0.4305E+00
  0.4571E+00
  0.4799E+00
  0.4992E+00
  0.5042E+00
  0.4987E+00
  0.5042E+00
  0.5654E+00
  0.7289E+00
  0.9232E+00
  0.9864E+00
  0.9654E+00
  0.9579E+00
  0.9578E+00
  0.9573E+00
  0.9558E+00
  0.9520E+00
  0.9439E+00
  0.9299E+00
  0.9098E+00
  0.8849E+00
  0.8575E+00
  0.8290E+00
  0.8005E+00
  0.7724E+00
  0.7449E+00
  0.7181E+00
  0.6920E+00
  0.6669E+00
  0.6425E+00
  0.6191E+00
  0.5966E+00
  0.5750E+00
  0.5542E+00
  0.5343E+00
  0.5152E+00
  0.4969E+00
  0.4793E+00
  0.4625E+00
  0.4464E+00
  0.4310E+00
  0.4162E+00
  0.4020E+00
  0.3885E+00
  0.3757E+00
  0.3635E+00
  0.3519E+00
  0.3411E+00
  0.3310E+00
  0.3218E+00
  0.3138E+00
  0.3077E+00
  0.3049E+00
  0.3059E+00
  0.3096E+00
  0.3178E+00
  0.3337E+00
  0.3590E+00
  0.3901E+00
  0.4230E+00
  0.4540E+00
  0.4788E+00
  0.5002E+00
  0.5152E+00
  0.5158E+00
  0.5028E+00
  0.5000E+00
  0.5514E+00
  0.7124E+00
  0.9160E+00
  0.9917E+00
  0.9723E+00
  0.9546E+00
  0.9545E+00
  0.9540E+00
  0.9525E+00
  0.9488E+00
  0.9410E+00
  0.9272E+00
  0.9074E+00
  0.8827E+00
  0.8554E+00
  0.8270E+00
  0.7985E+00
  0.7704E+00
  0.7429E+00
  0.7161E+00
  0.6901E+00
  0.6649E+00
  0.6406E+00
  0.6172E+00
  0.5947E+00
  0.5730E+00
  0.5523E+00
  0.5324E+00
  0.5133E+00
  0.4950E+00
  0.4774E+00
  0.4606E+00
  0.4445E+00
  0.4290E+00
  0.4142E+00
  0.4001E+00
  0.3866E+00
  0.3737E+00
  0.3615E+00
  0.3500E+00
  0.3391E+00
  0.3290E+00
  0.3197E+00
  0.3115E+00
  0.3051E+00
  0.3026E+00
  0.3036E+00
  0.3086E+00
  0.3212E+00
  0.3455E+00
  0.3793E+00
  0.4153E+00
  0.4489E+00
  0.4768E+00
  0.4995E+00
  0.5199E+00
  0.5291E+00
  0.5259E+00
  0.5039E+00
  0.4903E+00
  0.5369E+00
  0.6931E+00
  0.9063E+00
  0.9975E+00
  0.9809E+00
  0.9508E+00
  0.9506E+00
  0.9502E+00
  0.9488E+00
  0.9452E+00
  0.9376E+00
  0.9242E+00
  0.9046E+00
  0.8801E+00
  0.8529E+00
  0.8246E+00
  0.7961E+00
  0.7680E+00
  0.7406E+00
  0.7138E+00
  0.6878E+00
  0.6626E+00
  0.6383E+00
  0.6149E+00
  0.5924E+00
  0.5708E+00
  0.5500E+00
  0.5301E+00
  0.5110E+00
  0.4927E+00
  0.4752E+00
  0.4584E+00
  0.4423E+00
  0.4268E+00
  0.4120E+00
  0.3979E+00
  0.3843E+00
  0.3715E+00
  0.3592E+00
  0.3476E+00
  0.3367E+00
  0.3266E+00
  0.3172E+00
  0.3089E+00
  0.3018E+00
  0.3003E+00
  0.3018E+00
  0.3097E+00
  0.3311E+00
  0.3661E+00
  0.4075E+00
  0.4442E+00
  0.4735E+00
  0.4971E+00
  0.5185E+00
  0.5371E+00
  0.5400E+00
  0.5309E+00
  0.4993E+00
  0.4788E+00
  0.5206E+00
  0.6713E+00
  0.8929E+00
  0.1002E+01
  0.9858E+00
  0.9464E+00
  0.9463E+00
  0.9459E+00
  0.9446E+00
  0.9412E+00
  0.9338E+00
  0.9207E+00
  0.9014E+00
  0.8772E+00
  0.8501E+00
  0.8219E+00
  0.7934E+00
  0.7654E+00
  0.7379E+00
  0.7112E+00
  0.6852E+00
  0.6600E+00
  0.6357E+00
  0.6123E+00
  0.5898E+00
  0.5682E+00
  0.5475E+00
  0.5276E+00
  0.5085E+00
  0.4902E+00
  0.4726E+00
  0.4558E+00
  0.4397E+00
  0.4242E+00
  0.4094E+00
  0.3953E+00
  0.3817E+00
  0.3688E+00
  0.3565E+00
  0.3449E+00
  0.3339E+00
  0.3237E+00
  0.3141E+00
  0.3057E+00
  0.2984E+00
  0.2978E+00
  0.3017E+00
  0.3177E+00
  0.3513E+00
  0.3960E+00
  0.4393E+00
  0.4713E+00
  0.4950E+00
  0.5156E+00
  0.5359E+00
  0.5491E+00
  0.5475E+00
  0.5283E+00
  0.4897E+00
  0.4660E+00
  0.5036E+00
  0.6481E+00
  0.8754E+00
  0.1004E+01
  0.9847E+00
  0.9416E+00
  0.9415E+00
  0.9411E+00
  0.9398E+00
  0.9366E+00
  0.9295E+00
  0.9168E+00
  0.8979E+00
  0.8739E+00
  0.8470E+00
  0.8188E+00
  0.7904E+00
  0.7624E+00
  0.7350E+00
  0.7082E+00
  0.6822E+00
  0.6571E+00
  0.6328E+00
  0.6094E+00
  0.5869E+00
  0.5653E+00
  0.5446E+00
  0.5246E+00
  0.5056E+00
  0.4873E+00
  0.4697E+00
  0.4529E+00
  0.4367E+00
  0.4213E+00
  0.4064E+00
  0.3922E+00
  0.3786E+00
  0.3657E+00
  0.3533E+00
  0.3416E+00
  0.3306E+00
  0.3202E+00
  0.3104E+00
  0.3012E+00
  0.2954E+00
  0.2969E+00
  0.3073E+00
  0.3363E+00
  0.3813E+00
  0.4306E+00
  0.4686E+00
  0.4935E+00
  0.5135E+00
  0.5323E+00
  0.5501E+00
  0.5554E+00
  0.5480E+00
  0.5167E+00
  0.4752E+00
  0.4538E+00
  0.4877E+00
  0.6245E+00
  0.8526E+00
  0.1002E+01
  0.9843E+00
  0.9362E+00
  0.9361E+00
  0.9357E+00
  0.9346E+00
  0.9315E+00
  0.9247E+00
  0.9124E+00
  0.8939E+00
  0.8703E+00
  0.8435E+00
  0.8154E+00
  0.7871E+00
  0.7591E+00
  0.7316E+00
  0.7049E+00
  0.6789E+00
  0.6538E+00
  0.6295E+00
  0.6061E+00
  0.5836E+00
  0.5620E+00
  0.5412E+00
  0.5213E+00
  0.5022E+00
  0.4839E+00
  0.4663E+00
  0.4494E+00
  0.4333E+00
  0.4177E+00
  0.4028E+00
  0.3886E+00
  0.3749E+00
  0.3619E+00
  0.3494E+00
  0.3376E+00
  0.3265E+00
  0.3157E+00
  0.3058E+00
  0.2953E+00
  0.2944E+00
  0.3006E+00
  0.3243E+00
  0.3665E+00
  0.4185E+00
  0.4642E+00
  0.4916E+00
  0.5106E+00
  0.5283E+00
  0.5457E+00
  0.5578E+00
  0.5567E+00
  0.5386E+00
  0.4986E+00
  0.4570E+00
  0.4455E+00
  0.4751E+00
  0.6008E+00
  0.8234E+00
  0.9980E+00
  0.9900E+00
  0.9302E+00
  0.9302E+00
  0.9298E+00
  0.9288E+00
  0.9259E+00
  0.9194E+00
  0.9076E+00
  0.8895E+00
  0.8662E+00
  0.8396E+00
  0.8116E+00
  0.7833E+00
  0.7553E+00
  0.7279E+00
  0.7012E+00
  0.6752E+00
  0.6501E+00
  0.6258E+00
  0.6023E+00
  0.5798E+00
  0.5582E+00
  0.5374E+00
  0.5174E+00
  0.4983E+00
  0.4799E+00
  0.4623E+00
  0.4454E+00
  0.4291E+00
  0.4135E+00
  0.3985E+00
  0.3842E+00
  0.3704E+00
  0.3573E+00
  0.3447E+00
  0.3328E+00
  0.3213E+00
  0.3106E+00
  0.2980E+00
  0.2939E+00
  0.2971E+00
  0.3153E+00
  0.3536E+00
  0.4050E+00
  0.4560E+00
  0.4896E+00
  0.5084E+00
  0.5241E+00
  0.5397E+00
  0.5547E+00
  0.5586E+00
  0.5515E+00
  0.5181E+00
  0.4748E+00
  0.4426E+00
  0.4404E+00
  0.4658E+00
  0.5774E+00
  0.7864E+00
  0.9830E+00
  0.9983E+00
  0.9236E+00
  0.9235E+00
  0.9232E+00
  0.9222E+00
  0.9195E+00
  0.9135E+00
  0.9021E+00
  0.8845E+00
  0.8616E+00
  0.8352E+00
  0.8073E+00
  0.7791E+00
  0.7511E+00
  0.7237E+00
  0.6969E+00
  0.6709E+00
  0.6458E+00
  0.6214E+00
  0.5980E+00
  0.5754E+00
  0.5537E+00
  0.5329E+00
  0.5129E+00
  0.4937E+00
  0.4752E+00
  0.4575E+00
  0.4405E+00
  0.4241E+00
  0.4084E+00
  0.3934E+00
  0.3789E+00
  0.3650E+00
  0.3517E+00
  0.3390E+00
  0.3267E+00
  0.3153E+00
  0.3024E+00
  0.2948E+00
  0.2965E+00
  0.3101E+00
  0.3436E+00
  0.3928E+00
  0.4460E+00
  0.4849E+00
  0.5055E+00
  0.5199E+00
  0.5342E+00
  0.5489E+00
  0.5570E+00
  0.5548E+00
  0.5321E+00
  0.4891E+00
  0.4514E+00
  0.4368E+00
  0.4390E+00
  0.4614E+00
  0.5535E+00
  0.7400E+00
  0.9480E+00
  0.1004E+01
  0.9161E+00
  0.9160E+00
  0.9158E+00
  0.9149E+00
  0.9124E+00
  0.9066E+00
  0.8958E+00
  0.8788E+00
  0.8562E+00
  0.8302E+00
  0.8024E+00
  0.7742E+00
  0.7462E+00
  0.7187E+00
  0.6920E+00
  0.6660E+00
  0.6407E+00
  0.6164E+00
  0.5929E+00
  0.5702E+00
  0.5485E+00
  0.5275E+00
  0.5074E+00
  0.4881E+00
  0.4696E+00
  0.4518E+00
  0.4346E+00
  0.4182E+00
  0.4023E+00
  0.3871E+00
  0.3725E+00
  0.3585E+00
  0.3451E+00
  0.3320E+00
  0.3198E+00
  0.3067E+00
  0.2966E+00
  0.2970E+00
  0.3077E+00
  0.3366E+00
  0.3818E+00
  0.4358E+00
  0.4803E+00
  0.5037E+00
  0.5168E+00
  0.5293E+00
  0.5426E+00
  0.5531E+00
  0.5534E+00
  0.5388E+00
  0.4991E+00
  0.4583E+00
  0.4370E+00
  0.4364E+00
  0.4416E+00
  0.4620E+00
  0.5298E+00
  0.6854E+00
  0.8905E+00
  0.1012E+01
  0.9075E+00
  0.9075E+00
  0.9072E+00
  0.9064E+00
  0.9041E+00
  0.8988E+00
  0.8885E+00
  0.8721E+00
  0.8500E+00
  0.8242E+00
  0.7966E+00
  0.7685E+00
  0.7405E+00
  0.7130E+00
  0.6862E+00
  0.6601E+00
  0.6349E+00
  0.6104E+00
  0.5868E+00
  0.5641E+00
  0.5422E+00
  0.5212E+00
  0.5010E+00
  0.4816E+00
  0.4629E+00
  0.4450E+00
  0.4277E+00
  0.4111E+00
  0.3952E+00
  0.3798E+00
  0.3650E+00
  0.3509E+00
  0.3371E+00
  0.3241E+00
  0.3103E+00
  0.2992E+00
  0.2986E+00
  0.3072E+00
  0.3329E+00
  0.3735E+00
  0.4243E+00
  0.4717E+00
  0.5008E+00
  0.5156E+00
  0.5266E+00
  0.5383E+00
  0.5479E+00
  0.5497E+00
  0.5389E+00
  0.5031E+00
  0.4630E+00
  0.4379E+00
  0.4352E+00
  0.4385E+00
  0.4497E+00
  0.4661E+00
  0.5085E+00
  0.6257E+00
  0.8142E+00
  0.1016E+01
  0.8978E+00
  0.8978E+00
  0.8975E+00
  0.8968E+00
  0.8947E+00
  0.8898E+00
  0.8801E+00
  0.8643E+00
  0.8428E+00
  0.8173E+00
  0.7899E+00
  0.7618E+00
  0.7338E+00
  0.7063E+00
  0.6794E+00
  0.6533E+00
  0.6279E+00
  0.6034E+00
  0.5797E+00
  0.5569E+00
  0.5349E+00
  0.5138E+00
  0.4935E+00
  0.4740E+00
  0.4552E+00
  0.4371E+00
  0.4197E+00
  0.4030E+00
  0.3869E+00
  0.3714E+00
  0.3565E+00
  0.3421E+00
  0.3283E+00
  0.3137E+00
  0.3019E+00
  0.3009E+00
  0.3080E+00
  0.3307E+00
  0.3693E+00
  0.4187E+00
  0.4652E+00
  0.4950E+00
  0.5099E+00
  0.5217E+00
  0.5342E+00
  0.5440E+00
  0.5455E+00
  0.5355E+00
  0.5021E+00
  0.4638E+00
  0.4387E+00
  0.4350E+00
  0.4371E+00
  0.4464E+00
  0.4589E+00
  0.4698E+00
  0.4922E+00
  0.5675E+00
  0.7249E+00
  0.1010E+01
  0.8870E+00
  0.8870E+00
  0.8868E+00
  0.8862E+00
  0.8843E+00
  0.8798E+00
  0.8707E+00
  0.8556E+00
  0.8347E+00
  0.8096E+00
  0.7823E+00
  0.7542E+00
  0.7262E+00
  0.6987E+00
  0.6718E+00
  0.6456E+00
  0.6202E+00
  0.5956E+00
  0.5718E+00
  0.5489E+00
  0.5268E+00
  0.5056E+00
  0.4852E+00
  0.4655E+00
  0.4466E+00
  0.4285E+00
  0.4110E+00
  0.3941E+00
  0.3779E+00
  0.3622E+00
  0.3471E+00
  0.3324E+00
  0.3170E+00
  0.3054E+00
  0.3037E+00
  0.3107E+00
  0.3326E+00
  0.3650E+00
  0.4111E+00
  0.4613E+00
  0.4952E+00
  0.5097E+00
  0.5184E+00
  0.5290E+00
  0.5387E+00
  0.5412E+00
  0.5316E+00
  0.4989E+00
  0.4623E+00
  0.4389E+00
  0.4353E+00
  0.4370E+00
  0.4452E+00
  0.4562E+00
  0.4653E+00
  0.4710E+00
  0.4815E+00
  0.5216E+00
  0.6333E+00
  0.9718E+00
  0.8757E+00
  0.8757E+00
  0.8755E+00
  0.8749E+00
  0.8733E+00
  0.8692E+00
  0.8607E+00
  0.8463E+00
  0.8261E+00
  0.8015E+00
  0.7745E+00
  0.7465E+00
  0.7185E+00
  0.6909E+00
  0.6640E+00
  0.6377E+00
  0.6122E+00
  0.5875E+00
  0.5636E+00
  0.5406E+00
  0.5184E+00
  0.4970E+00
  0.4765E+00
  0.4567E+00
  0.4377E+00
  0.4194E+00
  0.4018E+00
  0.3848E+00
  0.3684E+00
  0.3527E+00
  0.3371E+00
  0.3212E+00
  0.3106E+00
  0.3079E+00
  0.3146E+00
  0.3367E+00
  0.3715E+00
  0.4123E+00
  0.4540E+00
  0.4887E+00
  0.5087E+00
  0.5193E+00
  0.5296E+00
  0.5370E+00
  0.5375E+00
  0.5278E+00
  0.4958E+00
  0.4608E+00
  0.4395E+00
  0.4363E+00
  0.4379E+00
  0.4454E+00
  0.4550E+00
  0.4629E+00
  0.4676E+00
  0.4709E+00
  0.4772E+00
  0.4954E+00
  0.5536E+00
  0.8379E+00
  0.8653E+00
  0.8653E+00
  0.8651E+00
  0.8647E+00
  0.8632E+00
  0.8596E+00
  0.8520E+00
  0.8387E+00
  0.8194E+00
  0.7953E+00
  0.7686E+00
  0.7408E+00
  0.7128E+00
  0.6850E+00
  0.6578E+00
  0.6313E+00
  0.6055E+00
  0.5805E+00
  0.5565E+00
  0.5335E+00
  0.5113E+00
  0.4899E+00
  0.4692E+00
  0.4492E+00
  0.4300E+00
  0.4115E+00
  0.3937E+00
  0.3765E+00
  0.3598E+00
  0.3429E+00
  0.3286E+00
  0.3186E+00
  0.3143E+00
  0.3213E+00
  0.3435E+00
  0.3770E+00
  0.4200E+00
  0.4622E+00
  0.4892E+00
  0.5025E+00
  0.5130E+00
  0.5256E+00
  0.5369E+00
  0.5372E+00
  0.5274E+00
  0.4953E+00
  0.4610E+00
  0.4416E+00
  0.4382E+00
  0.4397E+00
  0.4463E+00
  0.4546E+00
  0.4617E+00
  0.4659E+00
  0.4680E+00
  0.4715E+00
  0.4766E+00
  0.4791E+00
  0.4708E+00
  0.6123E+00
  0.8641E+00
  0.8641E+00
  0.8639E+00
  0.8635E+00
  0.8622E+00
  0.8588E+00
  0.8515E+00
  0.8386E+00
  0.8195E+00
  0.7956E+00
  0.7689E+00
  0.7410E+00
  0.7128E+00
  0.6849E+00
  0.6575E+00
  0.6308E+00
  0.6048E+00
  0.5796E+00
  0.5550E+00
  0.5311E+00
  0.5081E+00
  0.4860E+00
  0.4648E+00
  0.4443E+00
  0.4247E+00
  0.4058E+00
  0.3878E+00
  0.3706E+00
  0.3545E+00
  0.3406E+00
  0.3287E+00
  0.3244E+00
  0.3315E+00
  0.3541E+00
  0.3882E+00
  0.4275E+00
  0.4661E+00
  0.4954E+00
  0.5091E+00
  0.5135E+00
  0.5213E+00
  0.5310E+00
  0.5353E+00
  0.5281E+00
  0.4978E+00
  0.4636E+00
  0.4452E+00
  0.4414E+00
  0.4427E+00
  0.4479E+00
  0.4548E+00
  0.4608E+00
  0.4643E+00
  0.4660E+00
  0.4684E+00
  0.4728E+00
  0.4739E+00
  0.4567E+00
  0.3916E+00
  0.4340E+00
  0.8675E+00
  0.8674E+00
  0.8673E+00
  0.8670E+00
  0.8658E+00
  0.8628E+00
  0.8560E+00
  0.8437E+00
  0.8253E+00
  0.8016E+00
  0.7746E+00
  0.7462E+00
  0.7175E+00
  0.6891E+00
  0.6611E+00
  0.6338E+00
  0.6072E+00
  0.5815E+00
  0.5565E+00
  0.5323E+00
  0.5090E+00
  0.4865E+00
  0.4650E+00
  0.4442E+00
  0.4244E+00
  0.4054E+00
  0.3874E+00
  0.3703E+00
  0.3549E+00
  0.3425E+00
  0.3384E+00
  0.3458E+00
  0.3683E+00
  0.4022E+00
  0.4414E+00
  0.4747E+00
  0.4959E+00
  0.5097E+00
  0.5193E+00
  0.5260E+00
  0.5316E+00
  0.5323E+00
  0.5259E+00
  0.4989E+00
  0.4668E+00
  0.4492E+00
  0.4453E+00
  0.4463E+00
  0.4504E+00
  0.4556E+00
  0.4602E+00
  0.4629E+00
  0.4641E+00
  0.4659E+00
  0.4696E+00
  0.4719E+00
  0.4606E+00
  0.4124E+00
  0.3351E+00
  0.3242E+00
  0.8726E+00
  0.8726E+00
  0.8725E+00
  0.8722E+00
  0.8712E+00
  0.8685E+00
  0.8623E+00
  0.8507E+00
  0.8329E+00
  0.8096E+00
  0.7827E+00
  0.7540E+00
  0.7248E+00
  0.6959E+00
  0.6675E+00
  0.6396E+00
  0.6125E+00
  0.5862E+00
  0.5608E+00
  0.5362E+00
  0.5124E+00
  0.4896E+00
  0.4676E+00
  0.4465E+00
  0.4263E+00
  0.4071E+00
  0.3890E+00
  0.3727E+00
  0.3598E+00
  0.3566E+00
  0.3646E+00
  0.3869E+00
  0.4188E+00
  0.4543E+00
  0.4848E+00
  0.5031E+00
  0.5108E+00
  0.5184E+00
  0.5292E+00
  0.5368E+00
  0.5354E+00
  0.5265E+00
  0.4991E+00
  0.4678E+00
  0.4512E+00
  0.4488E+00
  0.4495E+00
  0.4526E+00
  0.4569E+00
  0.4604E+00
  0.4623E+00
  0.4628E+00
  0.4638E+00
  0.4668E+00
  0.4692E+00
  0.4609E+00
  0.4189E+00
  0.3540E+00
  0.2889E+00
  0.2588E+00
  0.8773E+00
  0.8773E+00
  0.8772E+00
  0.8769E+00
  0.8761E+00
  0.8737E+00
  0.8680E+00
  0.8572E+00
  0.8401E+00
  0.8173E+00
  0.7906E+00
  0.7618E+00
  0.7324E+00
  0.7032E+00
  0.6744E+00
  0.6462E+00
  0.6187E+00
  0.5919E+00
  0.5660E+00
  0.5409E+00
  0.5167E+00
  0.4935E+00
  0.4712E+00
  0.4499E+00
  0.4297E+00
  0.4108E+00
  0.3939E+00
  0.3814E+00
  0.3796E+00
  0.3873E+00
  0.4085E+00
  0.4381E+00
  0.4687E+00
  0.4923E+00
  0.5073E+00
  0.5172E+00
  0.5223E+00
  0.5290E+00
  0.5366E+00
  0.5369E+00
  0.5284E+00
  0.4990E+00
  0.4681E+00
  0.4519E+00
  0.4504E+00
  0.4514E+00
  0.4544E+00
  0.4579E+00
  0.4610E+00
  0.4624E+00
  0.4624E+00
  0.4626E+00
  0.4648E+00
  0.4670E+00
  0.4602E+00
  0.4222E+00
  0.3606E+00
  0.2997E+00
  0.2508E+00
  0.2243E+00
  0.8815E+00
  0.8815E+00
  0.8815E+00
  0.8812E+00
  0.8805E+00
  0.8784E+00
  0.8733E+00
  0.8633E+00
  0.8469E+00
  0.8245E+00
  0.7980E+00
  0.7693E+00
  0.7398E+00
  0.7102E+00
  0.6811E+00
  0.6524E+00
  0.6244E+00
  0.5972E+00
  0.5708E+00
  0.5454E+00
  0.5209E+00
  0.4976E+00
  0.4753E+00
  0.4544E+00
  0.4350E+00
  0.4184E+00
  0.4064E+00
  0.4051E+00
  0.4125E+00
  0.4316E+00
  0.4571E+00
  0.4826E+00
  0.5013E+00
  0.5120E+00
  0.5196E+00
  0.5275E+00
  0.5346E+00
  0.5390E+00
  0.5374E+00
  0.5272E+00
  0.4977E+00
  0.4670E+00
  0.4513E+00
  0.4505E+00
  0.4520E+00
  0.4551E+00
  0.4585E+00
  0.4612E+00
  0.4623E+00
  0.4622E+00
  0.4620E+00
  0.4635E+00
  0.4656E+00
  0.4600E+00
  0.4249E+00
  0.3653E+00
  0.3055E+00
  0.2571E+00
  0.2240E+00
  0.2080E+00
  0.8840E+00
  0.8840E+00
  0.8840E+00
  0.8838E+00
  0.8831E+00
  0.8813E+00
  0.8767E+00
  0.8674E+00
  0.8518E+00
  0.8300E+00
  0.8037E+00
  0.7751E+00
  0.7453E+00
  0.7153E+00
  0.6857E+00
  0.6567E+00
  0.6283E+00
  0.6008E+00
  0.5742E+00
  0.5487E+00
  0.5244E+00
  0.5013E+00
  0.4799E+00
  0.4602E+00
  0.4437E+00
  0.4320E+00
  0.4308E+00
  0.4376E+00
  0.4539E+00
  0.4749E+00
  0.4949E+00
  0.5095E+00
  0.5189E+00
  0.5253E+00
  0.5311E+00
  0.5386E+00
  0.5442E+00
  0.5411E+00
  0.5278E+00
  0.4955E+00
  0.4637E+00
  0.4491E+00
  0.4489E+00
  0.4513E+00
  0.4551E+00
  0.4586E+00
  0.4612E+00
  0.4621E+00
  0.4620E+00
  0.4618E+00
  0.4628E+00
  0.4646E+00
  0.4597E+00
  0.4270E+00
  0.3691E+00
  0.3100E+00
  0.2616E+00
  0.2276E+00
  0.2088E+00
  0.2020E+00
  0.8846E+00
  0.8846E+00
  0.8846E+00
  0.8844E+00
  0.8839E+00
  0.8823E+00
  0.8782E+00
  0.8696E+00
  0.8548E+00
  0.8336E+00
  0.8076E+00
  0.7788E+00
  0.7488E+00
  0.7186E+00
  0.6887E+00
  0.6593E+00
  0.6308E+00
  0.6032E+00
  0.5766E+00
  0.5514E+00
  0.5276E+00
  0.5057E+00
  0.4859E+00
  0.4694E+00
  0.4578E+00
  0.4559E+00
  0.4615E+00
  0.4747E+00
  0.4912E+00
  0.5069E+00
  0.5185E+00
  0.5264E+00
  0.5327E+00
  0.5381E+00
  0.5439E+00
  0.5483E+00
  0.5456E+00
  0.5319E+00
  0.4962E+00
  0.4612E+00
  0.4450E+00
  0.4454E+00
  0.4494E+00
  0.4543E+00
  0.4585E+00
  0.4612E+00
  0.4620E+00
  0.4618E+00
  0.4615E+00
  0.4624E+00
  0.4640E+00
  0.4593E+00
  0.4278E+00
  0.3713E+00
  0.3132E+00
  0.2650E+00
  0.2305E+00
  0.2105E+00
  0.2024E+00
  0.2004E+00
  0.8851E+00
  0.8851E+00
  0.8851E+00
  0.8849E+00
  0.8845E+00
  0.8830E+00
  0.8793E+00
  0.8714E+00
  0.8575E+00
  0.8369E+00
  0.8112E+00
  0.7824E+00
  0.7522E+00
  0.7218E+00
  0.6916E+00
  0.6620E+00
  0.6334E+00
  0.6059E+00
  0.5797E+00
  0.5552E+00
  0.5328E+00
  0.5128E+00
  0.4961E+00
  0.4843E+00
  0.4810E+00
  0.4851E+00
  0.4950E+00
  0.5077E+00
  0.5199E+00
  0.5291E+00
  0.5358E+00
  0.5412E+00
  0.5464E+00
  0.5514E+00
  0.5538E+00
  0.5498E+00
  0.5354E+00
  0.4991E+00
  0.4608E+00
  0.4417E+00
  0.4416E+00
  0.4461E+00
  0.4526E+00
  0.4579E+00
  0.4612E+00
  0.4621E+00
  0.4618E+00
  0.4614E+00
  0.4621E+00
  0.4635E+00
  0.4589E+00
  0.4283E+00
  0.3725E+00
  0.3152E+00
  0.2674E+00
  0.2327E+00
  0.2119E+00
  0.2030E+00
  0.2005E+00
  0.2001E+00
  0.8863E+00
  0.8863E+00
  0.8863E+00
  0.8862E+00
  0.8858E+00
  0.8845E+00
  0.8812E+00
  0.8740E+00
  0.8608E+00
  0.8409E+00
  0.8156E+00
  0.7868E+00
  0.7564E+00
  0.7256E+00
  0.6952E+00
  0.6655E+00
  0.6371E+00
  0.6102E+00
  0.5851E+00
  0.5621E+00
  0.5417E+00
  0.5247E+00
  0.5125E+00
  0.5070E+00
  0.5093E+00
  0.5165E+00
  0.5260E+00
  0.5349E+00
  0.5418E+00
  0.5471E+00
  0.5518E+00
  0.5562E+00
  0.5596E+00
  0.5592E+00
  0.5541E+00
  0.5384E+00
  0.5020E+00
  0.4621E+00
  0.4396E+00
  0.4384E+00
  0.4425E+00
  0.4503E+00
  0.4568E+00
  0.4609E+00
  0.4623E+00
  0.4620E+00
  0.4615E+00
  0.4621E+00
  0.4633E+00
  0.4586E+00
  0.4282E+00
  0.3730E+00
  0.3164E+00
  0.2691E+00
  0.2344E+00
  0.2131E+00
  0.2035E+00
  0.2006E+00
  0.2001E+00
  0.2000E+00
  0.8898E+00
  0.8898E+00
  0.8898E+00
  0.8897E+00
  0.8894E+00
  0.8882E+00
  0.8853E+00
  0.8785E+00
  0.8660E+00
  0.8466E+00
  0.8214E+00
  0.7925E+00
  0.7618E+00
  0.7308E+00
  0.7002E+00
  0.6709E+00
  0.6431E+00
  0.6173E+00
  0.5938E+00
  0.5730E+00
  0.5557E+00
  0.5426E+00
  0.5351E+00
  0.5353E+00
  0.5393E+00
  0.5458E+00
  0.5518E+00
  0.5567E+00
  0.5606E+00
  0.5643E+00
  0.5668E+00
  0.5663E+00
  0.5628E+00
  0.5565E+00
  0.5385E+00
  0.5030E+00
  0.4636E+00
  0.4389E+00
  0.4363E+00
  0.4396E+00
  0.4480E+00
  0.4556E+00
  0.4604E+00
  0.4623E+00
  0.4622E+00
  0.4617E+00
  0.4624E+00
  0.4635E+00
  0.4586E+00
  0.4281E+00
  0.3729E+00
  0.3166E+00
  0.2700E+00
  0.2355E+00
  0.2140E+00
  0.2039E+00
  0.2007E+00
  0.2001E+00
  0.2000E+00
  0.2000E+00
  0.8958E+00
  0.8958E+00
  0.8958E+00
  0.8957E+00
  0.8954E+00
  0.8944E+00
  0.8916E+00
  0.8853E+00
  0.8732E+00
  0.8541E+00
  0.8288E+00
  0.7994E+00
  0.7683E+00
  0.7371E+00
  0.7068E+00
  0.6781E+00
  0.6515E+00
  0.6273E+00
  0.6060E+00
  0.5882E+00
  0.5744E+00
  0.5653E+00
  0.5620E+00
  0.5637E+00
  0.5674E+00
  0.5711E+00
  0.5737E+00
  0.5759E+00
  0.5763E+00
  0.5745E+00
  0.5703E+00
  0.5650E+00
  0.5549E+00
  0.5329E+00
  0.4991E+00
  0.4629E+00
  0.4388E+00
  0.4352E+00
  0.4378E+00
  0.4464E+00
  0.4548E+00
  0.4603E+00
  0.4624E+00
  0.4624E+00
  0.4620E+00
  0.4628E+00
  0.4639E+00
  0.4589E+00
  0.4281E+00
  0.3729E+00
  0.3166E+00
  0.2701E+00
  0.2361E+00
  0.2146E+00
  0.2042E+00
  0.2008E+00
  0.2001E+00
  0.2000E+00
  0.2000E+00
  0.2000E+00
  0.9009E+00
  0.9009E+00
  0.9009E+00
  0.9008E+00
  0.9005E+00
  0.8996E+00
  0.8970E+00
  0.8909E+00
  0.8792E+00
  0.8604E+00
  0.8350E+00
  0.8054E+00
  0.7741E+00
  0.7430E+00
  0.7135E+00
  0.6863E+00
  0.6616E+00
  0.6398E+00
  0.6215E+00
  0.6072E+00
  0.5967E+00
  0.5904E+00
  0.5890E+00
  0.5898E+00
  0.5910E+00
  0.5901E+00
  0.5872E+00
  0.5832E+00
  0.5783E+00
  0.5723E+00
  0.5626E+00
  0.5455E+00
  0.5205E+00
  0.4898E+00
  0.4588E+00
  0.4379E+00
  0.4349E+00
  0.4369E+00
  0.4454E+00
  0.4546E+00
  0.4608E+00
  0.4630E+00
  0.4629E+00
  0.4627E+00
  0.4636E+00
  0.4646E+00
  0.4593E+00
  0.4282E+00
  0.3730E+00
  0.3166E+00
  0.2701E+00
  0.2362E+00
  0.2149E+00
  0.2045E+00
  0.2009E+00
  0.2001E+00
  0.2000E+00
  0.2000E+00
  0.2000E+00
  0.2000E+00
  0.9019E+00
  0.9019E+00
  0.9019E+00
  0.9018E+00
  0.9015E+00
  0.9006E+00
  0.8979E+00
  0.8919E+00
  0.8802E+00
  0.8616E+00
  0.8366E+00
  0.8078E+00
  0.7777E+00
  0.7483E+00
  0.7209E+00
  0.6960E+00
  0.6742E+00
  0.6558E+00
  0.6407E+00
  0.6287E+00
  0.6196E+00
  0.6128E+00
  0.6081E+00
  0.6035E+00
  0.5979E+00
  0.5923E+00
  0.5863E+00
  0.5788E+00
  0.5679E+00
  0.5515E+00
  0.5297E+00
  0.5047E+00
  0.4773E+00
  0.4518E+00
  0.4373E+00
  0.4354E+00
  0.4371E+00
  0.4450E+00
  0.4549E+00
  0.4616E+00
  0.4642E+00
  0.4640E+00
  0.4638E+00
  0.4649E+00
  0.4658E+00
  0.4598E+00
  0.4278E+00
  0.3725E+00
  0.3164E+00
  0.2700E+00
  0.2361E+00
  0.2149E+00
  0.2046E+00
  0.2010E+00
  0.2001E+00
  0.2000E+00
  0.2000E+00
  0.2000E+00
  0.2000E+00
  0.2000E+00
  0.9007E+00
  0.9007E+00
  0.9007E+00
  0.9006E+00
  0.9003E+00
  0.8993E+00
  0.8966E+00
  0.8905E+00
  0.8788E+00
  0.8602E+00
  0.8356E+00
  0.8073E+00
  0.7781E+00
  0.7507E+00
  0.7256E+00
  0.7032E+00
  0.6836E+00
  0.6666E+00
  0.6518E+00
  0.6386E+00
  0.6268E+00
  0.6169E+00
  0.6092E+00
  0.6017E+00
  0.5934E+00
  0.5831E+00
  0.5697E+00
  0.5533E+00
  0.5338E+00
  0.5120E+00
  0.4884E+00
  0.4651E+00
  0.4464E+00
  0.4380E+00
  0.4367E+00
  0.4388E+00
  0.4464E+00
  0.4560E+00
  0.4628E+00
  0.4657E+00
  0.4658E+00
  0.4658E+00
  0.4667E+00
  0.4670E+00
  0.4603E+00
  0.4271E+00
  0.3713E+00
  0.3152E+00
  0.2691E+00
  0.2355E+00
  0.2146E+00
  0.2045E+00
  0.2010E+00
  0.2002E+00
  0.2000E+00
  0.2000E+00
  0.2000E+00
  0.2000E+00
  0.2000E+00
  0.2000E+00
  0.8902E+00
  0.8902E+00
  0.8902E+00
  0.8900E+00