# vtk DataFile Version 3.0
vtk output
ASCII
DATASET RECTILINEAR_GRID
DIMENSIONS          61          61 1
X_COORDINATES    61 double
  0.0000E+00
  0.1667E+00
  0.3333E+00
  0.5000E+00
  0.6667E+00
  0.8333E+00
  0.1000E+01
  0.1167E+01
  0.1333E+01
  0.1500E+01
  0.1667E+01
  0.1833E+01
  0.2000E+01
  0.2167E+01
  0.2333E+01
  0.2500E+01
  0.2667E+01
  0.2833E+01
  0.3000E+01
  0.3167E+01
  0.3333E+01
  0.3500E+01
  0.3667E+01
  0.3833E+01
  0.4000E+01
  0.4167E+01
  0.4333E+01
  0.4500E+01
  0.4667E+01
  0.4833E+01
  0.5000E+01
  0.5167E+01
  0.5333E+01
  0.5500E+01
  0.5667E+01
  0.5833E+01
  0.6000E+01
  0.6167E+01
  0.6333E+01
  0.6500E+01
  0.6667E+01
  0.6833E+01
  0.7000E+01
  0.7167E+01
  0.7333E+01
  0.7500E+01
  0.7667E+01
  0.7833E+01
  0.8000E+01
  0.8167E+01
  0.8333E+01
  0.8500E+01
  0.8667E+01
  0.8833E+01
  0.9000E+01
  0.9167E+01
  0.9333E+01
  0.9500E+01
  0.9667E+01
  0.9833E+01
  0.1000E+02
Y_COORDINATES    61 double
  0.0000E+00
  0.1667E+00
  0.3333E+00
  0.5000E+00
  0.6667E+00
  0.8333E+00
  0.1000E+01
  0.1167E+01
  0.1333E+01
  0.1500E+01
  0.1667E+01
  0.1833E+01
  0.2000E+01
  0.2167E+01
  0.2333E+01
  0.2500E+01
  0.2667E+01
  0.2833E+01
  0.3000E+01
  0.3167E+01
  0.3333E+01
  0.3500E+01
  0.3667E+01
  0.3833E+01
  0.4000E+01
  0.4167E+01
  0.4333E+01
  0.4500E+01
  0.4667E+01
  0.4833E+01
  0.5000E+01
  0.5167E+01
  0.5333E+01
  0.5500E+01
  0.5667E+01
  0.5833E+01
  0.6000E+01
  0.6167E+01
  0.6333E+01
  0.6500E+01
  0.6667E+01
  0.6833E+01
  0.7000E+01
  0.7167E+01
  0.7333E+01
  0.7500E+01
  0.7667E+01
  0.7833E+01
  0.8000E+01
  0.8167E+01
  0.8333E+01
  0.8500E+01
  0.8667E+01
  0.8833E+01
  0.9000E+01
  0.9167E+01
  0.9333E+01
  0.9500E+01
  0.9667E+01
  0.9833E+01
  0.1000E+02
Z_COORDINATES 1 double
0
CELL_DATA                 3600
FIELD FieldData 4
density 1                 3600 double
  0.2273E+01
  0.2273E+01
  0.2273E+01
  0.2273E+01
  0.2273E+01
  0.2273E+01
  0.2273E+01
  0.2273E+01
  0.2273E+01
  0.2273E+01
  0.2273E+01
  0.2272E+01
  0.2271E+01
  0.2266E+01
  0.2251E+01
  0.2216E+01
  0.2154E+01
  0.2067E+01
  0.1967E+01
  0.1863E+01
  0.1760E+01
  0.1661E+01
  0.1566E+01
  0.1477E+01
  0.1394E+01
  0.1317E+01
  0.1244E+01
  0.1177E+01
  0.1114E+01
  0.1055E+01
  0.1000E+01
  0.9498E+00
  0.9037E+00
  0.8623E+00
  0.8259E+00
  0.7953E+00
  0.7814E+00
  0.7847E+00
  0.7989E+00
  0.8157E+00
  0.8278E+00
  0.8283E+00
  0.8147E+00
  0.7642E+00
  0.6952E+00
  0.6338E+00
  0.5980E+00
  0.5934E+00
  0.5971E+00
  0.6087E+00
  0.6055E+00
  0.5127E+00
  0.3348E+00
  0.2318E+00
  0.2018E+00
  0.2000E+00
  0.2000E+00
  0.2000E+00
  0.2000E+00
  0.2000E+00
  0.2244E+01
  0.2244E+01
  0.2244E+01
  0.2244E+01
  0.2244E+01
  0.2244E+01
  0.2244E+01
  0.2244E+01
  0.2244E+01
  0.2244E+01
  0.2243E+01
  0.2243E+01
  0.2242E+01
  0.2237E+01
  0.2223E+01
  0.2188E+01
  0.2127E+01
  0.2041E+01
  0.1942E+01
  0.1838E+01
  0.1736E+01
  0.1637E+01
  0.1543E+01
  0.1454E+01
  0.1371E+01
  0.1293E+01
  0.1221E+01
  0.1153E+01
  0.1090E+01
  0.1031E+01
  0.9760E+00
  0.9255E+00
  0.8793E+00
  0.8379E+00
  0.8016E+00
  0.7713E+00
  0.7568E+00
  0.7597E+00
  0.7730E+00
  0.7889E+00
  0.8007E+00
  0.8015E+00
  0.7898E+00
  0.7432E+00
  0.6791E+00
  0.6225E+00
  0.5902E+00
  0.5871E+00
  0.5920E+00
  0.6044E+00
  0.6004E+00
  0.5053E+00
  0.3304E+00
  0.2304E+00
  0.2017E+00
  0.2000E+00
  0.2000E+00
  0.2000E+00
  0.2000E+00
  0.2000E+00
  0.2184E+01
  0.2184E+01
  0.2184E+01
  0.2184E+01
  0.2184E+01
  0.2184E+01
  0.2184E+01
  0.2184E+01
  0.2184E+01
  0.2184E+01
  0.2184E+01
  0.2184E+01
  0.2183E+01
  0.2178E+01
  0.2164E+01
  0.2131E+01
  0.2072E+01
  0.1988E+01
  0.1891E+01
  0.1788E+01
  0.1687E+01
  0.1589E+01
  0.1496E+01
  0.1407E+01
  0.1325E+01
  0.1247E+01
  0.1175E+01
  0.1108E+01
  0.1045E+01
  0.9867E+00
  0.9324E+00
  0.8823E+00
  0.8367E+00
  0.7958E+00
  0.7601E+00
  0.7306E+00
  0.7155E+00
  0.7177E+00
  0.7296E+00
  0.7440E+00
  0.7559E+00
  0.7575E+00
  0.7491E+00
  0.7089E+00
  0.6532E+00
  0.6037E+00
  0.5774E+00
  0.5758E+00
  0.5828E+00
  0.5963E+00
  0.5913E+00
  0.4926E+00
  0.3226E+00
  0.2276E+00
  0.2014E+00
  0.2000E+00
  0.2000E+00
  0.2000E+00
  0.2000E+00
  0.2000E+00
  0.2097E+01
  0.2097E+01
  0.2097E+01
  0.2097E+01
  0.2097E+01
  0.2097E+01
  0.2097E+01
  0.2097E+01
  0.2097E+01
  0.2097E+01
  0.2097E+01
  0.2097E+01
  0.2095E+01
  0.2091E+01
  0.2079E+01
  0.2048E+01
  0.1991E+01
  0.1911E+01
  0.1816E+01
  0.1716E+01
  0.1617E+01
  0.1521E+01
  0.1430E+01
  0.1343E+01
  0.1262E+01
  0.1186E+01
  0.1116E+01
  0.1050E+01
  0.9883E+00
  0.9311E+00
  0.8782E+00
  0.8295E+00
  0.7852E+00
  0.7456E+00
  0.7111E+00
  0.6828E+00
  0.6678E+00
  0.6693E+00
  0.6795E+00
  0.6927E+00
  0.7051E+00
  0.7088E+00
  0.7033E+00
  0.6719E+00
  0.6248E+00
  0.5829E+00
  0.5617E+00
  0.5613E+00
  0.5711E+00
  0.5861E+00
  0.5793E+00
  0.4740E+00
  0.3111E+00
  0.2237E+00
  0.2011E+00
  0.2000E+00
  0.2000E+00
  0.2000E+00
  0.2000E+00
  0.2000E+00
  0.1990E+01
  0.1990E+01
  0.1990E+01
  0.1990E+01
  0.1990E+01
  0.1990E+01
  0.1990E+01
  0.1990E+01
  0.1990E+01
  0.1990E+01
  0.1990E+01
  0.1990E+01
  0.1989E+01
  0.1985E+01
  0.1974E+01
  0.1946E+01
  0.1893E+01
  0.1817E+01
  0.1726E+01
  0.1630E+01
  0.1534E+01
  0.1441E+01
  0.1353E+01
  0.1269E+01
  0.1190E+01
  0.1117E+01
  0.1049E+01
  0.9854E+00
  0.9262E+00
  0.8711E+00
  0.8203E+00
  0.7737E+00
  0.7313E+00
  0.6934E+00
  0.6605E+00
  0.6336E+00
  0.6188E+00
  0.6197E+00
  0.6287E+00
  0.6413E+00
  0.6547E+00
  0.6625E+00
  0.6601E+00
  0.6375E+00
  0.5978E+00
  0.5613E+00
  0.5447E+00
  0.5459E+00
  0.5587E+00
  0.5752E+00
  0.5645E+00
  0.4503E+00
  0.2971E+00
  0.2190E+00
  0.2008E+00
  0.2000E+00
  0.2000E+00
  0.2000E+00
  0.2000E+00
  0.2000E+00
  0.1875E+01
  0.1875E+01
  0.1875E+01
  0.1875E+01
  0.1875E+01
  0.1875E+01
  0.1875E+01
  0.1875E+01
  0.1875E+01
  0.1875E+01
  0.1875E+01
  0.1875E+01
  0.1875E+01
  0.1871E+01
  0.1861E+01
  0.1836E+01
  0.1787E+01
  0.1716E+01
  0.1630E+01
  0.1538E+01
  0.1447E+01
  0.1358E+01
  0.1272E+01
  0.1192E+01
  0.1117E+01
  0.1047E+01
  0.9816E+00
  0.9208E+00
  0.8643E+00
  0.8119E+00
  0.7635E+00
  0.7191E+00
  0.6788E+00
  0.6428E+00
  0.6114E+00
  0.5859E+00
  0.5712E+00
  0.5718E+00
  0.5802E+00
  0.5929E+00
  0.6088E+00
  0.6223E+00
  0.6230E+00
  0.6079E+00
  0.5732E+00
  0.5399E+00
  0.5283E+00
  0.5312E+00
  0.5483E+00
  0.5642E+00
  0.5468E+00
  0.4216E+00
  0.2813E+00
  0.2141E+00
  0.2005E+00
  0.2000E+00
  0.2000E+00
  0.2000E+00
  0.2000E+00
  0.2000E+00
  0.1761E+01
  0.1761E+01
  0.1761E+01
  0.1761E+01
  0.1761E+01
  0.1761E+01
  0.1761E+01
  0.1761E+01
  0.1761E+01
  0.1761E+01
  0.1761E+01
  0.1761E+01
  0.1760E+01
  0.1758E+01
  0.1749E+01
  0.1726E+01
  0.1682E+01
  0.1616E+01
  0.1535E+01
  0.1448E+01
  0.1361E+01
  0.1276E+01
  0.1194E+01
  0.1118E+01
  0.1046E+01
  0.9792E+00
  0.9170E+00
  0.8592E+00
  0.8055E+00
  0.7556E+00
  0.7097E+00
  0.6676E+00
  0.6293E+00
  0.5951E+00
  0.5652E+00
  0.5409E+00
  0.5266E+00
  0.5272E+00
  0.5354E+00
  0.5493E+00
  0.5697E+00
  0.5910E+00
  0.5947E+00
  0.5832E+00
  0.5502E+00
  0.5198E+00
  0.5132E+00
  0.5188E+00
  0.5396E+00
  0.5535E+00
  0.5254E+00
  0.3884E+00
  0.2646E+00
  0.2095E+00
  0.2003E+00
  0.2000E+00
  0.2000E+00
  0.2000E+00
  0.2000E+00
  0.2000E+00
  0.1652E+01
  0.1652E+01
  0.1652E+01
  0.1652E+01
  0.1652E+01
  0.1652E+01
  0.1652E+01
  0.1652E+01
  0.1652E+01
  0.1652E+01
  0.1652E+01
  0.1652E+01
  0.1651E+01
  0.1649E+01
  0.1641E+01
  0.1621E+01
  0.1582E+01
  0.1520E+01
  0.1444E+01
  0.1362E+01
  0.1279E+01
  0.1198E+01
  0.1121E+01
  0.1048E+01
  0.9793E+00
  0.9156E+00
  0.8565E+00
  0.8015E+00
  0.7505E+00
  0.7032E+00
  0.6596E+00
  0.6197E+00
  0.5834E+00
  0.5509E+00
  0.5224E+00
  0.4988E+00
  0.4856E+00
  0.4866E+00
  0.4952E+00
  0.5126E+00
  0.5407E+00
  0.5708E+00
  0.5752E+00
  0.5617E+00
  0.5274E+00
  0.5013E+00
  0.4993E+00
  0.5096E+00
  0.5327E+00
  0.5425E+00
  0.4958E+00
  0.3541E+00
  0.2481E+00
  0.2058E+00
  0.2001E+00
  0.2000E+00
  0.2000E+00
  0.2000E+00
  0.2000E+00
  0.2000E+00
  0.1549E+01
  0.1549E+01
  0.1549E+01
  0.1549E+01
  0.1549E+01
  0.1549E+01
  0.1549E+01
  0.1549E+01
  0.1549E+01
  0.1549E+01
  0.1549E+01
  0.1549E+01
  0.1548E+01
  0.1546E+01
  0.1540E+01
  0.1523E+01
  0.1487E+01
  0.1431E+01
  0.1359E+01
  0.1281E+01
  0.1203E+01
  0.1126E+01
  0.1052E+01
  0.9822E+00
  0.9171E+00
  0.8565E+00
  0.8002E+00
  0.7480E+00
  0.6995E+00
  0.6546E+00
  0.6132E+00
  0.5754E+00
  0.5409E+00
  0.5100E+00
  0.4828E+00
  0.4593E+00
  0.4489E+00
  0.4506E+00
  0.4612E+00
  0.4853E+00
  0.5258E+00
  0.5621E+00
  0.5638E+00
  0.5420E+00
  0.5054E+00
  0.4861E+00
  0.4876E+00
  0.5039E+00
  0.5278E+00
  0.5285E+00
  0.4573E+00
  0.3200E+00
  0.2329E+00
  0.2031E+00
  0.2001E+00
  0.2000E+00
  0.2000E+00
  0.2000E+00
  0.2000E+00
  0.2000E+00
  0.1452E+01
  0.1452E+01
  0.1452E+01
  0.1452E+01
  0.1452E+01
  0.1452E+01
  0.1452E+01
  0.1452E+01
  0.1452E+01
  0.1452E+01
  0.1452E+01
  0.1452E+01
  0.1452E+01
  0.1450E+01
  0.1445E+01
  0.1430E+01
  0.1398E+01
  0.1347E+01
  0.1280E+01
  0.1206E+01
  0.1131E+01
  0.1058E+01
  0.9877E+00
  0.9213E+00
  0.8593E+00
  0.8015E+00
  0.7480E+00
  0.6983E+00
  0.6521E+00
  0.6095E+00
  0.5702E+00
  0.5343E+00
  0.5017E+00
  0.4720E+00
  0.4462E+00
  0.4226E+00
  0.4170E+00
  0.4199E+00
  0.4366E+00
  0.4797E+00
  0.5345E+00
  0.5601E+00
  0.5531E+00
  0.5202E+00
  0.4843E+00
  0.4746E+00
  0.4796E+00
  0.5015E+00
  0.5217E+00
  0.5097E+00
  0.4103E+00
  0.2880E+00
  0.2203E+00
  0.2014E+00
  0.2000E+00
  0.2000E+00
  0.2000E+00
  0.2000E+00
  0.2000E+00
  0.2000E+00
  0.1362E+01
  0.1362E+01
  0.1362E+01
  0.1362E+01
  0.1362E+01
  0.1362E+01
  0.1362E+01
  0.1362E+01
  0.1362E+01
  0.1362E+01
  0.1362E+01
  0.1362E+01
  0.1361E+01
  0.1360E+01
  0.1356E+01
  0.1343E+01
  0.1315E+01
  0.1268E+01
  0.1206E+01
  0.1136E+01
  0.1065E+01
  0.9950E+00
  0.9280E+00
  0.8647E+00
  0.8055E+00
  0.7505E+00
  0.6994E+00
  0.6521E+00
  0.6083E+00
  0.5677E+00
  0.5305E+00
  0.4964E+00
  0.4654E+00
  0.4370E+00
  0.4120E+00
  0.3909E+00
  0.3891E+00
  0.3986E+00
  0.4353E+00
  0.4908E+00
  0.5465E+00
  0.5540E+00
  0.5371E+00
  0.4972E+00
  0.4681E+00
  0.4659E+00
  0.4768E+00
  0.5012E+00
  0.5133E+00
  0.4787E+00
  0.3605E+00
  0.2600E+00
  0.2109E+00
  0.2006E+00
  0.2000E+00
  0.2000E+00
  0.2000E+00
  0.2000E+00
  0.2000E+00
  0.2000E+00
  0.1277E+01
  0.1277E+01
  0.1277E+01
  0.1277E+01
  0.1277E+01
  0.1277E+01
  0.1277E+01
  0.1277E+01
  0.1277E+01
  0.1277E+01
  0.1277E+01
  0.1277E+01
  0.1277E+01
  0.1276E+01
  0.1272E+01
  0.1261E+01
  0.1237E+01
  0.1194E+01
  0.1136E+01
  0.1071E+01
  0.1003E+01
  0.9365E+00
  0.8725E+00
  0.8121E+00
  0.7556E+00
  0.7031E+00
  0.6545E+00
  0.6095E+00
  0.5677E+00
  0.5292E+00
  0.4938E+00
  0.4615E+00
  0.4317E+00
  0.4049E+00
  0.3788E+00
  0.3667E+00
  0.3713E+00
  0.3992E+00
  0.4513E+00
  0.5161E+00
  0.5502E+00
  0.5452E+00
  0.5132E+00
  0.4743E+00
  0.4579E+00
  0.4606E+00
  0.4786E+00
  0.5009E+00
  0.4986E+00
  0.4307E+00
  0.3154E+00
  0.2369E+00
  0.2050E+00
  0.2002E+00
  0.2000E+00
  0.2000E+00
  0.2000E+00
  0.2000E+00
  0.2000E+00
  0.2000E+00
  0.1199E+01
  0.1199E+01
  0.1199E+01
  0.1199E+01
  0.1199E+01
  0.1199E+01
  0.1199E+01
  0.1199E+01
  0.1199E+01
  0.1199E+01
  0.1199E+01
  0.1199E+01
  0.1199E+01
  0.1198E+01
  0.1195E+01
  0.1186E+01
  0.1164E+01
  0.1126E+01
  0.1072E+01
  0.1010E+01
  0.9459E+00
  0.8824E+00
  0.8214E+00
  0.7636E+00
  0.7097E+00
  0.6596E+00
  0.6132E+00
  0.5702E+00
  0.5305E+00
  0.4938E+00
  0.4602E+00
  0.4292E+00
  0.4008E+00
  0.3741E+00
  0.3521E+00
  0.3532E+00
  0.3736E+00
  0.4184E+00
  0.4809E+00
  0.5385E+00
  0.5448E+00
  0.5265E+00
  0.4857E+00
  0.4556E+00
  0.4523E+00
  0.4609E+00
  0.4833E+00
  0.4953E+00
  0.4712E+00
  0.3735E+00
  0.2768E+00
  0.2198E+00
  0.2020E+00
  0.2001E+00
  0.2000E+00
  0.2000E+00
  0.2000E+00
  0.2000E+00
  0.2000E+00
  0.2000E+00
  0.1127E+01
  0.1127E+01
  0.1127E+01
  0.1127E+01
  0.1127E+01
  0.1127E+01
  0.1127E+01
  0.1127E+01
  0.1127E+01
  0.1127E+01
  0.1127E+01
  0.1127E+01
  0.1127E+01
  0.1126E+01
  0.1124E+01
  0.1116E+01
  0.1097E+01
  0.1063E+01
  0.1013E+01
  0.9546E+00
  0.8935E+00
  0.8329E+00
  0.7745E+00
  0.7192E+00
  0.6676E+00
  0.6197E+00
  0.5753E+00
  0.5343E+00
  0.4964E+00
  0.4615E+00
  0.4292E+00
  0.3995E+00
  0.3719E+00
  0.3455E+00
  0.3437E+00
  0.3569E+00
  0.3953E+00
  0.4501E+00
  0.5135E+00
  0.5401E+00
  0.5318E+00
  0.4960E+00
  0.4589E+00
  0.4465E+00
  0.4502E+00
  0.4676E+00
  0.4850E+00
  0.4810E+00
  0.4210E+00
  0.3213E+00
  0.2460E+00
  0.2090E+00
  0.2006E+00
  0.2000E+00
  0.2000E+00
  0.2000E+00
  0.2000E+00
  0.2000E+00
  0.2000E+00
  0.2000E+00
  0.1061E+01
  0.1061E+01
  0.1061E+01
  0.1061E+01
  0.1061E+01
  0.1061E+01
  0.1061E+01
  0.1061E+01
  0.1061E+01
  0.1061E+01
  0.1061E+01
  0.1061E+01
  0.1061E+01
  0.1060E+01
  0.1058E+01
  0.1052E+01
  0.1036E+01
  0.1005E+01
  0.9590E+00
  0.9040E+00
  0.8458E+00
  0.7878E+00
  0.7319E+00
  0.6789E+00
  0.6293E+00
  0.5834E+00
  0.5409E+00
  0.5017E+00
  0.4654E+00
  0.4317E+00
  0.4008E+00
  0.3719E+00
  0.3435E+00
  0.3400E+00
  0.3475E+00
  0.3773E+00
  0.4254E+00
  0.4898E+00
  0.5322E+00
  0.5306E+00
  0.5029E+00
  0.4640E+00
  0.4442E+00
  0.4451E+00
  0.4560E+00
  0.4741E+00
  0.4787E+00
  0.4476E+00
  0.3612E+00
  0.2778E+00
  0.2239E+00
  0.2034E+00
  0.2002E+00
  0.2000E+00
  0.2000E+00
  0.2000E+00
  0.2000E+00
  0.2000E+00
  0.2000E+00
  0.2000E+00
  0.1002E+01
  0.1002E+01
  0.1002E+01
  0.1002E+01
  0.1002E+01
  0.1002E+01
  0.1002E+01
  0.1002E+01
  0.1002E+01
  0.1002E+01
  0.1002E+01
  0.1002E+01
  0.1002E+01
  0.1001E+01
  0.9996E+00
  0.9943E+00
  0.9804E+00
  0.9527E+00
  0.9105E+00
  0.8587E+00
  0.8032E+00
  0.7476E+00
  0.6938E+00
  0.6428E+00
  0.5951E+00
  0.5508E+00
  0.5099E+00
  0.4720E+00
  0.4370E+00
  0.4049E+00
  0.3742E+00
  0.3457E+00
  0.3393E+00
  0.3439E+00
  0.3674E+00
  0.4092E+00
  0.4644E+00
  0.5186E+00
  0.5271E+00
  0.5082E+00
  0.4692E+00
  0.4444E+00
  0.4431E+00
  0.4497E+00
  0.4656E+00
  0.4736E+00
  0.4580E+00
  0.3913E+00
  0.3084E+00
  0.2444E+00
  0.2103E+00
  0.2010E+00
  0.2000E+00
  0.2000E+00
  0.2000E+00
  0.2000E+00
  0.2000E+00
  0.2000E+00
  0.2000E+00
  0.2000E+00
  0.9490E+00
  0.9490E+00
  0.9490E+00
  0.9490E+00
  0.9490E+00
  0.9490E+00
  0.9490E+00
  0.9490E+00
  0.9490E+00
  0.9490E+00
  0.9490E+00
  0.9490E+00
  0.9490E+00
  0.9487E+00
  0.9474E+00
  0.9430E+00
  0.9311E+00
  0.9065E+00
  0.8678E+00
  0.8191E+00
  0.7660E+00
  0.7126E+00
  0.6608E+00
  0.6114E+00
  0.5652E+00
  0.5224E+00
  0.4828E+00
  0.4462E+00
  0.4120E+00
  0.3784E+00
  0.3523E+00
  0.3430E+00
  0.3480E+00
  0.3675E+00
  0.3999E+00
  0.4515E+00
  0.5089E+00
  0.5236E+00
  0.5108E+00
  0.4751E+00
  0.4465E+00
  0.4421E+00
  0.4465E+00
  0.4604E+00
  0.4690E+00
  0.4615E+00
  0.4111E+00
  0.3333E+00
  0.2657E+00
  0.2214E+00
  0.2036E+00
  0.2003E+00
  0.2000E+00
  0.2000E+00
  0.2000E+00
  0.2000E+00
  0.2000E+00
  0.2000E+00
  0.2000E+00
  0.2000E+00
  0.9056E+00
  0.9056E+00
  0.9056E+00
  0.9056E+00
  0.9056E+00
  0.9056E+00
  0.9056E+00
  0.9056E+00
  0.9056E+00
  0.9056E+00
  0.9056E+00
  0.9056E+00
  0.9056E+00
  0.9054E+00
  0.9044E+00
  0.9007E+00
  0.8904E+00
  0.8684E+00
  0.8325E+00
  0.7862E+00
  0.7355E+00
  0.6840E+00
  0.6338E+00
  0.5859E+00
  0.5409E+00
  0.4988E+00
  0.4592E+00
  0.4225E+00
  0.3909E+00
  0.3670E+00
  0.3528E+00
  0.3574E+00
  0.3772E+00
  0.4090E+00
  0.4512E+00
  0.5037E+00
  0.5264E+00
  0.5179E+00
  0.4826E+00
  0.4503E+00
  0.4419E+00
  0.4445E+00
  0.4561E+00
  0.4659E+00
  0.4628E+00
  0.4239E+00
  0.3521E+00
  0.2842E+00
  0.2344E+00
  0.2084E+00
  0.2010E+00
  0.2001E+00
  0.2000E+00
  0.2000E+00
  0.2000E+00
  0.2000E+00
  0.2000E+00
  0.2000E+00
  0.2000E+00
  0.2000E+00
  0.8764E+00
  0.8764E+00
  0.8764E+00
  0.8764E+00
  0.8764E+00
  0.8764E+00
  0.8764E+00
  0.8764E+00
  0.8764E+00
  0.8764E+00
  0.8764E+00
  0.8764E+00
  0.8763E+00
  0.8762E+00
  0.8754E+00
  0.8725E+00
  0.8640E+00
  0.8448E+00
  0.8122E+00
  0.7686E+00
  0.7193E+00
  0.6687E+00
  0.6190E+00
  0.5712E+00
  0.5266E+00
  0.4856E+00
  0.4490E+00
  0.4171E+00
  0.3891E+00
  0.3709E+00
  0.3743E+00
  0.3949E+00
  0.4254E+00
  0.4643E+00
  0.5090E+00
  0.5261E+00
  0.5212E+00
  0.4911E+00
  0.4567E+00
  0.4434E+00
  0.4439E+00
  0.4529E+00
  0.4628E+00
  0.4613E+00
  0.4309E+00
  0.3659E+00
  0.2991E+00
  0.2466E+00
  0.2148E+00
  0.2026E+00
  0.2002E+00
  0.2000E+00
  0.2000E+00
  0.2000E+00
  0.2000E+00
  0.2000E+00
  0.2000E+00
  0.2000E+00
  0.2000E+00
  0.2000E+00
  0.8738E+00
  0.8738E+00
  0.8738E+00
  0.8738E+00
  0.8738E+00
  0.8738E+00
  0.8738E+00
  0.8738E+00
  0.8738E+00
  0.8738E+00
  0.8738E+00
  0.8738E+00
  0.8737E+00
  0.8736E+00
  0.8729E+00
  0.8703E+00
  0.8625E+00
  0.8446E+00
  0.8133E+00
  0.7703E+00
  0.7210E+00
  0.6700E+00
  0.6199E+00
  0.5719E+00
  0.5272E+00
  0.4865E+00
  0.4506E+00
  0.4198E+00
  0.3983E+00
  0.3998E+00
  0.4181E+00
  0.4501E+00
  0.4893E+00
  0.5194E+00
  0.5238E+00
  0.5172E+00
  0.4908E+00
  0.4606E+00
  0.4470E+00
  0.4457E+00
  0.4515E+00
  0.4603E+00
  0.4593E+00
  0.4319E+00
  0.3731E+00
  0.3102E+00
  0.2571E+00
  0.2215E+00
  0.2050E+00
  0.2006E+00
  0.2000E+00
  0.2000E+00
  0.2000E+00
  0.2000E+00
  0.2000E+00
  0.2000E+00
  0.2000E+00
  0.2000E+00
  0.2000E+00
  0.2000E+00
  0.8809E+00
  0.8809E+00
  0.8809E+00
  0.8809E+00
  0.8809E+00
  0.8809E+00
  0.8809E+00
  0.8809E+00
  0.8809E+00
  0.8809E+00
  0.8809E+00
  0.8809E+00
  0.8809E+00
  0.8808E+00
  0.8803E+00
  0.8782E+00
  0.8714E+00
  0.8550E+00
  0.8249E+00
  0.7823E+00
  0.7323E+00
  0.6801E+00
  0.6288E+00
  0.5802E+00
  0.5354E+00
  0.4952E+00
  0.4611E+00
  0.4364E+00
  0.4359E+00
  0.4509E+00
  0.4809E+00
  0.5139E+00
  0.5316E+00
  0.5273E+00
  0.5116E+00
  0.4822E+00
  0.4563E+00
  0.4469E+00
  0.4478E+00
  0.4532E+00
  0.4595E+00
  0.4579E+00
  0.4319E+00
  0.3759E+00
  0.3165E+00
  0.2651E+00
  0.2278E+00
  0.2078E+00
  0.2013E+00
  0.2001E+00
  0.2000E+00
  0.2000E+00
  0.2000E+00
  0.2000E+00
  0.2000E+00
  0.2000E+00
  0.2000E+00
  0.2000E+00
  0.2000E+00
  0.2000E+00
  0.8921E+00
  0.8921E+00
  0.8921E+00
  0.8921E+00
  0.8921E+00
  0.8921E+00
  0.8921E+00
  0.8921E+00
  0.8921E+00
  0.8921E+00
  0.8921E+00
  0.8921E+00
  0.8921E+00
  0.8920E+00
  0.8915E+00
  0.8897E+00
  0.8836E+00
  0.8684E+00
  0.8394E+00
  0.7970E+00
  0.7463E+00
  0.6932E+00
  0.6414E+00
  0.5929E+00
  0.5493E+00
  0.5127E+00
  0.4854E+00
  0.4796E+00
  0.4906E+00
  0.5159E+00
  0.5386E+00
  0.5400E+00
  0.5309E+00
  0.5088E+00
  0.4756E+00
  0.4501E+00
  0.4433E+00
  0.4458E+00
  0.4533E+00
  0.4601E+00
  0.4580E+00
  0.4323E+00
  0.3775E+00
  0.3200E+00
  0.2704E+00
  0.2330E+00
  0.2107E+00
  0.2021E+00
  0.2003E+00
  0.2000E+00
  0.2000E+00
  0.2000E+00
  0.2000E+00
  0.2000E+00
  0.2000E+00
  0.2000E+00
  0.2000E+00
  0.2000E+00
  0.2000E+00
  0.2000E+00
  0.8994E+00
  0.8994E+00
  0.8994E+00
  0.8994E+00
  0.8994E+00
  0.8994E+00
  0.8994E+00
  0.8994E+00
  0.8994E+00
  0.8994E+00
  0.8994E+00
  0.8994E+00
  0.8994E+00
  0.8993E+00
  0.8989E+00
  0.8973E+00
  0.8919E+00
  0.8777E+00
  0.8499E+00
  0.8081E+00
  0.7580E+00
  0.7055E+00
  0.6549E+00
  0.6088E+00
  0.5698E+00
  0.5408E+00
  0.5258E+00
  0.5344E+00
  0.5462E+00
  0.5505E+00
  0.5455E+00
  0.5318E+00
  0.5024E+00
  0.4695E+00
  0.4468E+00
  0.4420E+00
  0.4439E+00
  0.4512E+00
  0.4594E+00
  0.4580E+00
  0.4329E+00
  0.3778E+00
  0.3210E+00
  0.2732E+00
  0.2366E+00
  0.2134E+00
  0.2031E+00
  0.2004E+00
  0.2000E+00
  0.2000E+00
  0.2000E+00
  0.2000E+00
  0.2000E+00
  0.2000E+00
  0.2000E+00
  0.2000E+00
  0.2000E+00
  0.2000E+00
  0.2000E+00
  0.2000E+00
  0.8986E+00
  0.8986E+00
  0.8986E+00
  0.8986E+00
  0.8986E+00
  0.8986E+00
  0.8986E+00
  0.8986E+00
  0.8986E+00
  0.8986E+00
  0.8986E+00
  0.8986E+00
  0.8986E+00
  0.8985E+00
  0.8981E+00
  0.8965E+00
  0.8912E+00
  0.8772E+00
  0.8498E+00
  0.8087E+00
  0.7595E+00
  0.7093E+00
  0.6625E+00
  0.6223E+00
  0.5910E+00
  0.5708E+00
  0.5619E+00
  0.5602E+00
  0.5543E+00
  0.5454E+00
  0.5259E+00
  0.4960E+00
  0.4641E+00
  0.4444E+00
  0.4423E+00
  0.4447E+00
  0.4529E+00
  0.4602E+00
  0.4579E+00
  0.4323E+00
  0.3778E+00
  0.3210E+00
  0.2737E+00
  0.2385E+00
  0.2153E+00
  0.2041E+00
  0.2007E+00
  0.2001E+00
  0.2000E+00
  0.2000E+00
  0.2000E+00
  0.2000E+00
  0.2000E+00
  0.2000E+00
  0.2000E+00
  0.2000E+00
  0.2000E+00
  0.2000E+00
  0.2000E+00
  0.2000E+00
  0.8833E+00
  0.8833E+00
  0.8833E+00
  0.8833E+00
  0.8833E+00
  0.8833E+00
  0.8833E+00
  0.8833E+00
  0.8833E+00
  0.8833E+00
  0.8833E+00
  0.8833E+00
  0.8833E+00
  0.8832E+00
  0.8828E+00
  0.8811E+00
  0.8758E+00
  0.8622E+00
  0.8358E+00
  0.7970E+00
  0.7511E+00
  0.7037E+00
  0.6601E+00
  0.6230E+00
  0.5947E+00
  0.5752E+00
  0.5637E+00
  0.5531E+00
  0.5371E+00
  0.5130E+00
  0.4853E+00
  0.4591E+00
  0.4444E+00
  0.4429E+00
  0.4466E+00
  0.4563E+00
  0.4627E+00
  0.4592E+00
  0.4319E+00
  0.3775E+00
  0.3210E+00
  0.2737E+00
  0.2387E+00
  0.2163E+00
  0.2049E+00
  0.2009E+00
  0.2001E+00
  0.2000E+00
  0.2000E+00
  0.2000E+00
  0.2000E+00
  0.2000E+00
  0.2000E+00
  0.2000E+00
  0.2000E+00
  0.2000E+00
  0.2000E+00
  0.2000E+00
  0.2000E+00
  0.2000E+00
  0.8308E+00
  0.8308E+00
  0.8308E+00
  0.8308E+00
  0.8308E+00
  0.8308E+00
  0.8308E+00
  0.8308E+00
  0.8308E+00
  0.8308E+00
  0.8308E+00
  0.8308E+00
  0.8308E+00
  0.8307E+00
  0.8302E+00
  0.8285E+00
  0.8230E+00
  0.8098E+00
  0.7853E+00
  0.7506E+00
  0.7111E+00
  0.6724E+00
  0.6376E+00
  0.6080E+00
  0.5831E+00
  0.5616E+00
  0.5420E+00
  0.5203E+00
  0.4971E+00
  0.4742E+00
  0.4555E+00
  0.4466E+00
  0.4449E+00
  0.4497E+00
  0.4602E+00
  0.4660E+00
  0.4613E+00
  0.4319E+00
  0.3760E+00
  0.3200E+00
  0.2732E+00
  0.2385E+00
  0.2163E+00
  0.2052E+00
  0.2011E+00
  0.2002E+00
  0.2000E+00
  0.2000E+00
  0.2000E+00
  0.2000E+00
  0.2000E+00
  0.2000E+00
  0.2000E+00
  0.2000E+00
  0.2000E+00
  0.2000E+00
  0.2000E+00
  0.2000E+00
  0.2000E+00
  0.2000E+00
  0.7589E+00
  0.7589E+00
  0.7589E+00
  0.7589E+00
  0.7589E+00
  0.7589E+00
  0.7589E+00
  0.7589E+00
  0.7589E+00
  0.7589E+00
  0.7589E+00
  0.7589E+00
  0.7589E+00
  0.7588E+00
  0.7582E+00
  0.7563E+00
  0.7507E+00
  0.7379E+00
  0.7161E+00
  0.6872E+00
  0.6558E+00
  0.6254E+00
  0.5979E+00
  0.5732E+00
  0.5502E+00
  0.5274E+00
  0.5054E+00
  0.4842E+00
  0.4681E+00
  0.4580E+00
  0.4523E+00
  0.4502E+00
  0.4558E+00
  0.4655E+00
  0.4693E+00
  0.4628E+00
  0.4308E+00
  0.3732E+00
  0.3165E+00
  0.2704E+00
  0.2366E+00
  0.2153E+00
  0.2049E+00
  0.2011E+00
  0.2002E+00
  0.2000E+00
  0.2000E+00
  0.2000E+00
  0.2000E+00
  0.2000E+00
  0.2000E+00
  0.2000E+00
  0.2000E+00
  0.2000E+00
  0.2000E+00
  0.2000E+00
  0.2000E+00
  0.2000E+00
  0.2000E+00
  0.2000E+00
  0.6934E+00
  0.6934E+00
  0.6934E+00
  0.6934E+00
  0.6934E+00
  0.6934E+00
  0.6934E+00
  0.6934E+00
  0.6934E+00
  0.6934E+00
  0.6934E+00
  0.6934E+00
  0.6934E+00
  0.6932E+00
  0.6926E+00
  0.6906E+00
  0.6849E+00
  0.6729E+00
  0.6541E+00
  0.6309E+00
  0.6065E+00
  0.5836E+00
  0.5614E+00
  0.5399E+00
  0.5197E+00
  0.5014E+00
  0.4861E+00
  0.4747E+00
  0.4658E+00
  0.4607E+00
  0.4609E+00
  0.4673E+00
  0.4742E+00
  0.4731E+00
  0.4618E+00
  0.4239E+00
  0.3660E+00
  0.3101E+00
  0.2651E+00
  0.2330E+00
  0.2134E+00
  0.2041E+00
  0.2009E+00
  0.2002E+00
  0.2000E+00
  0.2000E+00
  0.2000E+00
  0.2000E+00
  0.2000E+00
  0.2000E+00
  0.2000E+00
  0.2000E+00
  0.2000E+00
  0.2000E+00
  0.2000E+00
  0.2000E+00
  0.2000E+00
  0.2000E+00
  0.2000E+00
  0.2000E+00
  0.6530E+00
  0.6530E+00
  0.6530E+00
  0.6530E+00
  0.6530E+00
  0.6530E+00
  0.6530E+00
  0.6530E+00
  0.6530E+00
  0.6530E+00
  0.6530E+00
  0.6530E+00
  0.6530E+00
  0.6528E+00
  0.6522E+00
  0.6501E+00
  0.6445E+00
  0.6335E+00
  0.6172E+00
  0.5986E+00
  0.5804E+00
  0.5625E+00
  0.5449E+00
  0.5283E+00
  0.5133E+00
  0.4993E+00
  0.4876E+00
  0.4796E+00
  0.4768E+00
  0.4789E+00
  0.4833E+00
  0.4851E+00
  0.4784E+00
  0.4581E+00
  0.4107E+00
  0.3522E+00
  0.2991E+00
  0.2571E+00
  0.2278E+00
  0.2107E+00
  0.2031E+00
  0.2007E+00
  0.2001E+00
  0.2000E+00
  0.2000E+00
  0.2000E+00
  0.2000E+00
  0.2000E+00
  0.2000E+00
  0.2000E+00
  0.2000E+00
  0.2000E+00
  0.2000E+00
  0.2000E+00
  0.2000E+00
  0.2000E+00
  0.2000E+00
  0.2000E+00
  0.2000E+00
  0.2000E+00
  0.6430E+00
  0.6430E+00
  0.6430E+00
  0.6430E+00
  0.6430E+00
  0.6430E+00
  0.6430E+00
  0.6430E+00
  0.6430E+00
  0.6430E+00
  0.6430E+00
  0.6430E+00
  0.6429E+00
  0.6428E+00
  0.6421E+00
  0.6400E+00
  0.6348E+00
  0.6251E+00
  0.6114E+00
  0.5954E+00
  0.5788E+00
  0.5622E+00
  0.5461E+00
  0.5313E+00
  0.5188E+00
  0.5097E+00
  0.5040E+00
  0.5013E+00
  0.5015E+00
  0.5006E+00
  0.4953E+00
  0.4813E+00
  0.4477E+00
  0.3911E+00
  0.3333E+00
  0.2842E+00
  0.2467E+00
  0.2215E+00
  0.2078E+00
  0.2021E+00
  0.2004E+00
  0.2001E+00
  0.2000E+00
  0.2000E+00
  0.2000E+00
  0.2000E+00
  0.2000E+00
  0.2000E+00
  0.2000E+00
  0.2000E+00
  0.2000E+00
  0.2000E+00
  0.2000E+00
  0.2000E+00
  0.2000E+00
  0.2000E+00
  0.2000E+00
  0.2000E+00
  0.2000E+00
  0.2000E+00
  0.6430E+00
  0.6430E+00
  0.6430E+00
  0.6430E+00
  0.6430E+00
  0.6430E+00
  0.6430E+00
  0.6430E+00
  0.6430E+00
  0.6430E+00
  0.6430E+00
  0.6430E+00
  0.6430E+00
  0.6428E+00
  0.6422E+00
  0.6401E+00
  0.6351E+00
  0.6260E+00
  0.6136E+00
  0.5997E+00
  0.5857E+00
  0.5720E+00
  0.5590E+00
  0.5483E+00
  0.5396E+00
  0.5328E+00
  0.5277E+00
  0.5217E+00
  0.5132E+00
  0.4986E+00
  0.4712E+00
  0.4209E+00
  0.3614E+00
  0.3083E+00
  0.2657E+00
  0.2344E+00
  0.2148E+00
  0.2050E+00
  0.2013E+00
  0.2003E+00
  0.2000E+00
  0.2000E+00
  0.2000E+00
  0.2000E+00
  0.2000E+00
  0.2000E+00
  0.2000E+00
  0.2000E+00
  0.2000E+00
  0.2000E+00
  0.2000E+00
  0.2000E+00
  0.2000E+00
  0.2000E+00
  0.2000E+00
  0.2000E+00
  0.2000E+00
  0.2000E+00
  0.2000E+00
  0.2000E+00
  0.6466E+00
  0.6466E+00
  0.6466E+00
  0.6466E+00
  0.6466E+00
  0.6466E+00
  0.6466E+00
  0.6466E+00
  0.6466E+00
  0.6466E+00
  0.6466E+00
  0.6466E+00
  0.6466E+00
  0.6465E+00
  0.6459E+00
  0.6441E+00
  0.6399E+00
  0.6325E+00
  0.6223E+00
  0.6109E+00
  0.5989E+00
  0.5870E+00
  0.5754E+00
  0.5643E+00
  0.5535E+00
  0.5424E+00
  0.5285E+00
  0.5098E+00
  0.4785E+00
  0.4307E+00
  0.3736E+00
  0.3213E+00
  0.2778E+00
  0.2444E+00
  0.2214E+00
  0.2084E+00
  0.2026E+00
  0.2006E+00
  0.2001E+00
  0.2000E+00
  0.2000E+00
  0.2000E+00
  0.2000E+00
  0.2000E+00
  0.2000E+00
  0.2000E+00
  0.2000E+00
  0.2000E+00
  0.2000E+00
  0.2000E+00
  0.2000E+00
  0.2000E+00
  0.2000E+00
  0.2000E+00
  0.2000E+00
  0.2000E+00
  0.2000E+00
  0.2000E+00
  0.2000E+00
  0.2000E+00
  0.6404E+00
  0.6404E+00
  0.6404E+00
  0.6404E+00
  0.6404E+00
  0.6404E+00
  0.6404E+00
  0.6404E+00
  0.6404E+00
  0.6404E+00
  0.6404E+00
  0.6404E+00
  0.6404E+00
  0.6402E+00
  0.6397E+00
  0.6381E+00
  0.6342E+00
  0.6274E+00
  0.6178E+00
  0.6064E+00
  0.5938E+00
  0.5801E+00
  0.5647E+00
  0.5468E+00
  0.5254E+00
  0.4958E+00
  0.4573E+00
  0.4102E+00
  0.3605E+00
  0.3153E+00
  0.2767E+00
  0.2460E+00
  0.2239E+00
  0.2103E+00
  0.2036E+00
  0.2010E+00
  0.2002E+00
  0.2000E+00
  0.2000E+00
  0.2000E+00
  0.2000E+00
  0.2000E+00
  0.2000E+00
  0.2000E+00
  0.2000E+00
  0.2000E+00
  0.2000E+00
  0.2000E+00
  0.2000E+00
  0.2000E+00
  0.2000E+00
  0.2000E+00
  0.2000E+00
  0.2000E+00
  0.2000E+00
  0.2000E+00
  0.2000E+00
  0.2000E+00
  0.2000E+00
  0.2000E+00
  0.5405E+00
  0.5405E+00
  0.5405E+00
  0.5405E+00
  0.5405E+00
  0.5405E+00
  0.5405E+00
  0.5405E+00
  0.5405E+00
  0.5405E+00
  0.5405E+00
  0.5405E+00
  0.5405E+00
  0.5404E+00
  0.5400E+00
  0.5388E+00
  0.5359E+00
  0.5306E+00
  0.5222E+00
  0.5102E+00
  0.4944E+00
  0.4745E+00
  0.4503E+00
  0.4215E+00
  0.3883E+00
  0.3540E+00
  0.3200E+00
  0.2880E+00
  0.2599E+00
  0.2369E+00
  0.2198E+00
  0.2090E+00
  0.2034E+00
  0.2010E+00
  0.2003E+00
  0.2001E+00
  0.2000E+00
  0.2000E+00
  0.2000E+00
  0.2000E+00
  0.2000E+00
  0.2000E+00
  0.2000E+00
  0.2000E+00
  0.2000E+00
  0.2000E+00
  0.2000E+00
  0.2000E+00
  0.2000E+00
  0.2000E+00
  0.2000E+00
  0.2000E+00
  0.2000E+00
  0.2000E+00
  0.2000E+00
  0.2000E+00
  0.2000E+00
  0.2000E+00
  0.2000E+00
  0.2000E+00
  0.3489E+00
  0.3489E+00
  0.3489E+00
  0.3489E+00
  0.3489E+00
  0.3489E+00
  0.3489E+00
  0.3489E+00
  0.3489E+00
  0.3489E+00
  0.3489E+00
  0.3489E+00
  0.3489E+00
  0.3489E+00
  0.3487E+00
  0.3481E+00
  0.3468E+00
  0.3442E+00
  0.3397E+00
  0.3329E+00
  0.3234E+00
  0.3113E+00
  0.2971E+00
  0.2812E+00
  0.2645E+00
  0.2481E+00
  0.2329E+00
  0.2203E+00
  0.2109E+00
  0.2050E+00
  0.2020E+00
  0.2006E+00
  0.2002E+00
  0.2000E+00
  0.2000E+00
  0.2000E+00
  0.2000E+00
  0.2000E+00
  0.2000E+00
  0.2000E+00
  0.2000E+00
  0.2000E+00
  0.2000E+00
  0.2000E+00
  0.2000E+00
  0.2000E+00
  0.2000E+00
  0.2000E+00
  0.2000E+00
  0.2000E+00
  0.2000E+00
  0.2000E+00
  0.2000E+00
  0.2000E+00
  0.2000E+00
  0.2000E+00
  0.2000E+00
  0.2000E+00
  0.2000E+00
  0.2000E+00
  0.2364E+00
  0.2364E+00
  0.2364E+00
  0.2364E+00
  0.2364E+00
  0.2364E+00
  0.2364E+00
  0.2364E+00
  0.2364E+00
  0.2364E+00
  0.2364E+00
  0.2364E+00
  0.2364E+00
  0.2364E+00
  0.2363E+00
  0.2362E+00
  0.2358E+00
  0.2350E+00
  0.2335E+00
  0.2312E+00
  0.2279E+00
  0.2238E+00
  0.2191E+00
  0.2141E+00
  0.2095E+00
  0.2058E+00
  0.2031E+00
  0.2014E+00
  0.2006E+00
  0.2002E+00
  0.2001E+00
  0.2000E+00
  0.2000E+00
  0.2000E+00
  0.2000E+00
  0.2000E+00
  0.2000E+00
  0.2000E+00
  0.2000E+00
  0.2000E+00
  0.2000E+00
  0.2000E+00
  0.2000E+00
  0.2000E+00
  0.2000E+00
  0.2000E+00
  0.2000E+00
  0.2000E+00
  0.2000E+00
  0.2000E+00
  0.2000E+00
  0.2000E+00
  0.2000E+00
  0.2000E+00
  0.2000E+00
  0.2000E+00
  0.2000E+00
  0.2000E+00
  0.2000E+00
  0.2000E+00
  0.2024E+00
  0.2024E+00
  0.2024E+00
  0.2024E+00