# vtk DataFile Version 3.0
vtk output
ASCII
DATASET RECTILINEAR_GRID
DIMENSIONS          61          61 1
X_COORDINATES    61 double
  0.0000E+00
  0.1667E+00
  0.3333E+00
  0.5000E+00
  0.6667E+00
  0.8333E+00
  0.1000E+01
  0.1167E+01
  0.1333E+01
  0.1500E+01
  0.1667E+01
  0.1833E+01
  0.2000E+01
  0.2167E+01
  0.2333E+01
  0.2500E+01
  0.2667E+01
  0.2833E+01
  0.3000E+01
  0.3167E+01
  0.3333E+01
  0.3500E+01
  0.3667E+01
  0.3833E+01
  0.4000E+01
  0.4167E+01
  0.4333E+01
  0.4500E+01
  0.4667E+01
  0.4833E+01
  0.5000E+01
  0.5167E+01
  0.5333E+01
  0.5500E+01
  0.5667E+01
  0.5833E+01
  0.6000E+01
  0.6167E+01
  0.6333E+01
  0.6500E+01
  0.6667E+01
  0.6833E+01
  0.7000E+01
  0.7167E+01
  0.7333E+01
  0.7500E+01
  0.7667E+01
  0.7833E+01
  0.8000E+01
  0.8167E+01
  0.8333E+01
  0.8500E+01
  0.8667E+01
  0.8833E+01
  0.9000E+01
  0.9167E+01
  0.9333E+01
  0.9500E+01
  0.9667E+01
  0.9833E+01
  0.1000E+02
Y_COORDINATES    61 double
  0.0000E+00
  0.1667E+00
  0.3333E+00
  0.5000E+00
  0.6667E+00
  0.8333E+00
  0.1000E+01
  0.1167E+01
  0.1333E+01
  0.1500E+01
  0.1667E+01
  0.1833E+01
  0.2000E+01
  0.2167E+01
  0.2333E+01
  0.2500E+01
  0.2667E+01
  0.2833E+01
  0.3000E+01
  0.3167E+01
  0.3333E+01
  0.3500E+01
  0.3667E+01
  0.3833E+01
  0.4000E+01
  0.4167E+01
  0.4333E+01
  0.4500E+01
  0.4667E+01
  0.4833E+01
  0.5000E+01
  0.5167E+01
  0.5333E+01
  0.5500E+01
  0.5667E+01
  0.5833E+01
  0.6000E+01
  0.6167E+01
  0.6333E+01
  0.6500E+01
  0.6667E+01
  0.6833E+01
  0.7000E+01
  0.7167E+01
  0.7333E+01
  0.7500E+01
  0.7667E+01
  0.7833E+01
  0.8000E+01
  0.8167E+01
  0.8333E+01
  0.8500E+01
  0.8667E+01
  0.8833E+01
  0.9000E+01
  0.9167E+01
  0.9333E+01
  0.9500E+01
  0.9667E+01
  0.9833E+01
  0.1000E+02
Z_COORDINATES 1 double
0
CELL_DATA                 3600
FIELD FieldData 4
density 1                 3600 double
  0.2997E+01
  0.2997E+01
  0.2997E+01
  0.2997E+01
  0.2997E+01
  0.2997E+01
  0.2997E+01
  0.2997E+01
  0.2997E+01
  0.2997E+01
  0.2997E+01
  0.2997E+01
  0.2997E+01
  0.2997E+01
  0.2997E+01
  0.2997E+01
  0.2997E+01
  0.2997E+01
  0.2995E+01
  0.2984E+01
  0.2946E+01
  0.2851E+01
  0.2685E+01
  0.2469E+01
  0.2238E+01
  0.2014E+01
  0.1808E+01
  0.1626E+01
  0.1466E+01
  0.1322E+01
  0.1193E+01
  0.1085E+01
  0.1004E+01
  0.9487E+00
  0.9081E+00
  0.8869E+00
  0.8675E+00
  0.8185E+00
  0.7383E+00
  0.6706E+00
  0.6504E+00
  0.6373E+00
  0.5516E+00
  0.3682E+00
  0.2447E+00
  0.2035E+00
  0.2000E+00
  0.2000E+00
  0.2000E+00
  0.2000E+00
  0.2000E+00
  0.2000E+00
  0.2000E+00
  0.2000E+00
  0.2000E+00
  0.2000E+00
  0.2000E+00
  0.2000E+00
  0.2000E+00
  0.2000E+00
  0.2987E+01
  0.2987E+01
  0.2987E+01
  0.2987E+01
  0.2987E+01
  0.2987E+01
  0.2987E+01
  0.2987E+01
  0.2987E+01
  0.2987E+01
  0.2987E+01
  0.2987E+01
  0.2987E+01
  0.2987E+01
  0.2987E+01
  0.2987E+01
  0.2987E+01
  0.2987E+01
  0.2985E+01
  0.2974E+01
  0.2937E+01
  0.2842E+01
  0.2676E+01
  0.2462E+01
  0.2232E+01
  0.2009E+01
  0.1805E+01
  0.1623E+01
  0.1463E+01
  0.1320E+01
  0.1192E+01
  0.1084E+01
  0.1003E+01
  0.9482E+00
  0.9077E+00
  0.8866E+00
  0.8672E+00
  0.8183E+00
  0.7380E+00
  0.6702E+00
  0.6500E+00
  0.6369E+00
  0.5512E+00
  0.3680E+00
  0.2446E+00
  0.2035E+00
  0.2000E+00
  0.2000E+00
  0.2000E+00
  0.2000E+00
  0.2000E+00
  0.2000E+00
  0.2000E+00
  0.2000E+00
  0.2000E+00
  0.2000E+00
  0.2000E+00
  0.2000E+00
  0.2000E+00
  0.2000E+00
  0.2949E+01
  0.2949E+01
  0.2949E+01
  0.2949E+01
  0.2949E+01
  0.2949E+01
  0.2949E+01
  0.2949E+01
  0.2949E+01
  0.2949E+01
  0.2949E+01
  0.2949E+01
  0.2949E+01
  0.2949E+01
  0.2949E+01
  0.2949E+01
  0.2949E+01
  0.2949E+01
  0.2947E+01
  0.2937E+01
  0.2900E+01
  0.2807E+01
  0.2645E+01
  0.2434E+01
  0.2209E+01
  0.1989E+01
  0.1789E+01
  0.1611E+01
  0.1453E+01
  0.1312E+01
  0.1186E+01
  0.1079E+01
  0.9992E+00
  0.9453E+00
  0.9054E+00
  0.8846E+00
  0.8654E+00
  0.8165E+00
  0.7361E+00
  0.6682E+00
  0.6480E+00
  0.6349E+00
  0.5495E+00
  0.3671E+00
  0.2444E+00
  0.2035E+00
  0.2000E+00
  0.2000E+00
  0.2000E+00
  0.2000E+00
  0.2000E+00
  0.2000E+00
  0.2000E+00
  0.2000E+00
  0.2000E+00
  0.2000E+00
  0.2000E+00
  0.2000E+00
  0.2000E+00
  0.2000E+00
  0.2854E+01
  0.2854E+01
  0.2854E+01
  0.2854E+01
  0.2854E+01
  0.2854E+01
  0.2854E+01
  0.2854E+01
  0.2854E+01
  0.2854E+01
  0.2854E+01
  0.2854E+01
  0.2854E+01
  0.2854E+01
  0.2854E+01
  0.2854E+01
  0.2854E+01
  0.2853E+01
  0.2852E+01
  0.2842E+01
  0.2807E+01
  0.2720E+01
  0.2564E+01
  0.2362E+01
  0.2146E+01
  0.1935E+01
  0.1743E+01
  0.1572E+01
  0.1421E+01
  0.1285E+01
  0.1164E+01
  0.1061E+01
  0.9851E+00
  0.9337E+00
  0.8958E+00
  0.8761E+00
  0.8574E+00
  0.8086E+00
  0.7284E+00
  0.6608E+00
  0.6410E+00
  0.6282E+00
  0.5440E+00
  0.3644E+00
  0.2436E+00
  0.2034E+00
  0.2000E+00
  0.2000E+00
  0.2000E+00
  0.2000E+00
  0.2000E+00
  0.2000E+00
  0.2000E+00
  0.2000E+00
  0.2000E+00
  0.2000E+00
  0.2000E+00
  0.2000E+00
  0.2000E+00
  0.2000E+00
  0.2687E+01
  0.2687E+01
  0.2687E+01
  0.2687E+01
  0.2687E+01
  0.2687E+01
  0.2687E+01
  0.2687E+01
  0.2687E+01
  0.2687E+01
  0.2687E+01
  0.2687E+01
  0.2687E+01
  0.2687E+01
  0.2687E+01
  0.2687E+01
  0.2687E+01
  0.2686E+01
  0.2685E+01
  0.2676E+01
  0.2645E+01
  0.2564E+01
  0.2420E+01
  0.2231E+01
  0.2028E+01
  0.1831E+01
  0.1651E+01
  0.1492E+01
  0.1352E+01
  0.1226E+01
  0.1113E+01
  0.1018E+01
  0.9485E+00
  0.9021E+00
  0.8679E+00
  0.8510E+00
  0.8337E+00
  0.7861E+00
  0.7079E+00
  0.6426E+00
  0.6251E+00
  0.6140E+00
  0.5331E+00
  0.3589E+00
  0.2419E+00
  0.2031E+00
  0.2000E+00
  0.2000E+00
  0.2000E+00
  0.2000E+00
  0.2000E+00
  0.2000E+00
  0.2000E+00
  0.2000E+00
  0.2000E+00
  0.2000E+00
  0.2000E+00
  0.2000E+00
  0.2000E+00
  0.2000E+00
  0.2471E+01
  0.2471E+01
  0.2471E+01
  0.2471E+01
  0.2471E+01
  0.2471E+01
  0.2471E+01
  0.2471E+01
  0.2471E+01
  0.2471E+01
  0.2471E+01
  0.2471E+01
  0.2471E+01
  0.2471E+01
  0.2471E+01
  0.2471E+01
  0.2471E+01
  0.2470E+01
  0.2469E+01
  0.2462E+01
  0.2434E+01
  0.2362E+01
  0.2231E+01
  0.2057E+01
  0.1870E+01
  0.1688E+01
  0.1523E+01
  0.1376E+01
  0.1248E+01
  0.1133E+01
  0.1031E+01
  0.9451E+00
  0.8830E+00
  0.8425E+00
  0.8129E+00
  0.7997E+00
  0.7854E+00
  0.7420E+00
  0.6705E+00
  0.6122E+00
  0.6014E+00
  0.5941E+00
  0.5178E+00
  0.3501E+00
  0.2389E+00
  0.2027E+00
  0.2000E+00
  0.2000E+00
  0.2000E+00
  0.2000E+00
  0.2000E+00
  0.2000E+00
  0.2000E+00
  0.2000E+00
  0.2000E+00
  0.2000E+00
  0.2000E+00
  0.2000E+00
  0.2000E+00
  0.2000E+00
  0.2239E+01
  0.2239E+01
  0.2239E+01
  0.2239E+01
  0.2239E+01
  0.2239E+01
  0.2239E+01
  0.2239E+01
  0.2239E+01
  0.2239E+01
  0.2239E+01
  0.2239E+01
  0.2239E+01
  0.2239E+01
  0.2239E+01
  0.2239E+01
  0.2239E+01
  0.2239E+01
  0.2238E+01
  0.2232E+01
  0.2209E+01
  0.2145E+01
  0.2028E+01
  0.1870E+01
  0.1698E+01
  0.1531E+01
  0.1379E+01
  0.1245E+01
  0.1127E+01
  0.1022E+01
  0.9300E+00
  0.8529E+00
  0.7978E+00
  0.7617E+00
  0.7353E+00
  0.7262E+00
  0.7165E+00
  0.6825E+00
  0.6224E+00
  0.5779E+00
  0.5757E+00
  0.5731E+00
  0.4983E+00
  0.3373E+00
  0.2342E+00
  0.2022E+00
  0.2000E+00
  0.2000E+00
  0.2000E+00
  0.2000E+00
  0.2000E+00
  0.2000E+00
  0.2000E+00
  0.2000E+00
  0.2000E+00
  0.2000E+00
  0.2000E+00
  0.2000E+00
  0.2000E+00
  0.2000E+00
  0.2015E+01
  0.2015E+01
  0.2015E+01
  0.2015E+01
  0.2015E+01
  0.2015E+01
  0.2015E+01
  0.2015E+01
  0.2015E+01
  0.2015E+01
  0.2015E+01
  0.2015E+01
  0.2015E+01
  0.2015E+01
  0.2015E+01
  0.2015E+01
  0.2015E+01
  0.2015E+01
  0.2014E+01
  0.2009E+01
  0.1989E+01
  0.1935E+01
  0.1831E+01
  0.1688E+01
  0.1531E+01
  0.1377E+01
  0.1237E+01
  0.1114E+01
  0.1006E+01
  0.9104E+00
  0.8263E+00
  0.7567E+00
  0.7072E+00
  0.6740E+00
  0.6495E+00
  0.6453E+00
  0.6420E+00
  0.6209E+00
  0.5743E+00
  0.5479E+00
  0.5523E+00
  0.5508E+00
  0.4725E+00
  0.3203E+00
  0.2281E+00
  0.2016E+00
  0.2000E+00
  0.2000E+00
  0.2000E+00
  0.2000E+00
  0.2000E+00
  0.2000E+00
  0.2000E+00
  0.2000E+00
  0.2000E+00
  0.2000E+00
  0.2000E+00
  0.2000E+00
  0.2000E+00
  0.2000E+00
  0.1809E+01
  0.1809E+01
  0.1809E+01
  0.1809E+01
  0.1809E+01
  0.1809E+01
  0.1809E+01
  0.1809E+01
  0.1809E+01
  0.1809E+01
  0.1809E+01
  0.1809E+01
  0.1809E+01
  0.1809E+01
  0.1809E+01
  0.1809E+01
  0.1809E+01
  0.1809E+01
  0.1809E+01
  0.1805E+01
  0.1789E+01
  0.1742E+01
  0.1651E+01
  0.1522E+01
  0.1378E+01
  0.1237E+01
  0.1107E+01
  0.9940E+00
  0.8949E+00
  0.8069E+00
  0.7298E+00
  0.6662E+00
  0.6210E+00
  0.5899E+00
  0.5684E+00
  0.5688E+00
  0.5746E+00
  0.5685E+00
  0.5364E+00
  0.5236E+00
  0.5317E+00
  0.5278E+00
  0.4393E+00
  0.2999E+00
  0.2210E+00
  0.2010E+00
  0.2000E+00
  0.2000E+00
  0.2000E+00
  0.2000E+00
  0.2000E+00
  0.2000E+00
  0.2000E+00
  0.2000E+00
  0.2000E+00
  0.2000E+00
  0.2000E+00
  0.2000E+00
  0.2000E+00
  0.2000E+00
  0.1627E+01
  0.1627E+01
  0.1627E+01
  0.1627E+01
  0.1627E+01
  0.1627E+01
  0.1627E+01
  0.1627E+01
  0.1627E+01
  0.1627E+01
  0.1627E+01
  0.1627E+01
  0.1627E+01
  0.1627E+01
  0.1627E+01
  0.1627E+01
  0.1627E+01
  0.1627E+01
  0.1627E+01
  0.1623E+01
  0.1610E+01
  0.1572E+01
  0.1492E+01
  0.1376E+01
  0.1244E+01
  0.1114E+01
  0.9940E+00
  0.8892E+00
  0.7977E+00
  0.7166E+00
  0.6458E+00
  0.5874E+00
  0.5467E+00
  0.5135E+00
  0.5043E+00
  0.5102E+00
  0.5304E+00
  0.5308E+00
  0.5074E+00
  0.5027E+00
  0.5136E+00
  0.5018E+00
  0.4003E+00
  0.2777E+00
  0.2140E+00
  0.2005E+00
  0.2000E+00
  0.2000E+00
  0.2000E+00
  0.2000E+00
  0.2000E+00
  0.2000E+00
  0.2000E+00
  0.2000E+00
  0.2000E+00
  0.2000E+00
  0.2000E+00
  0.2000E+00
  0.2000E+00
  0.2000E+00
  0.1466E+01
  0.1466E+01
  0.1466E+01
  0.1466E+01
  0.1466E+01
  0.1466E+01
  0.1466E+01
  0.1466E+01
  0.1466E+01
  0.1466E+01
  0.1466E+01
  0.1466E+01
  0.1466E+01
  0.1466E+01
  0.1466E+01
  0.1466E+01
  0.1466E+01
  0.1466E+01
  0.1466E+01
  0.1463E+01
  0.1453E+01
  0.1421E+01
  0.1352E+01
  0.1248E+01
  0.1127E+01
  0.1006E+01
  0.8948E+00
  0.7977E+00
  0.7130E+00
  0.6380E+00
  0.5725E+00
  0.5188E+00
  0.4811E+00
  0.4529E+00
  0.4517E+00
  0.4718E+00
  0.5071E+00
  0.5041E+00
  0.4829E+00
  0.4857E+00
  0.4964E+00
  0.4694E+00
  0.3571E+00
  0.2554E+00
  0.2081E+00
  0.2002E+00
  0.2000E+00
  0.2000E+00
  0.2000E+00
  0.2000E+00
  0.2000E+00
  0.2000E+00
  0.2000E+00
  0.2000E+00
  0.2000E+00
  0.2000E+00
  0.2000E+00
  0.2000E+00
  0.2000E+00
  0.2000E+00
  0.1322E+01
  0.1322E+01
  0.1322E+01
  0.1322E+01
  0.1322E+01
  0.1322E+01
  0.1322E+01
  0.1322E+01
  0.1322E+01
  0.1322E+01
  0.1322E+01
  0.1322E+01
  0.1322E+01
  0.1322E+01
  0.1322E+01
  0.1322E+01
  0.1322E+01
  0.1322E+01
  0.1322E+01
  0.1320E+01
  0.1312E+01
  0.1285E+01
  0.1226E+01
  0.1133E+01
  0.1022E+01
  0.9103E+00
  0.8068E+00
  0.7166E+00
  0.6380E+00
  0.5687E+00
  0.5072E+00
  0.4598E+00
  0.4213E+00
  0.4108E+00
  0.4256E+00
  0.4798E+00
  0.5005E+00
  0.4792E+00
  0.4639E+00
  0.4749E+00
  0.4769E+00
  0.4253E+00
  0.3156E+00
  0.2353E+00
  0.2040E+00
  0.2001E+00
  0.2000E+00
  0.2000E+00
  0.2000E+00
  0.2000E+00
  0.2000E+00
  0.2000E+00
  0.2000E+00
  0.2000E+00
  0.2000E+00
  0.2000E+00
  0.2000E+00
  0.2000E+00
  0.2000E+00
  0.2000E+00
  0.1194E+01
  0.1194E+01
  0.1194E+01
  0.1194E+01
  0.1194E+01
  0.1194E+01
  0.1194E+01
  0.1194E+01
  0.1194E+01
  0.1194E+01
  0.1194E+01
  0.1194E+01
  0.1194E+01
  0.1194E+01
  0.1194E+01
  0.1194E+01
  0.1194E+01
  0.1194E+01
  0.1193E+01
  0.1192E+01
  0.1186E+01
  0.1164E+01
  0.1113E+01
  0.1031E+01
  0.9298E+00
  0.8262E+00
  0.7297E+00
  0.6458E+00
  0.5725E+00
  0.5072E+00
  0.4530E+00
  0.4027E+00
  0.3887E+00
  0.4020E+00
  0.4441E+00
  0.4884E+00
  0.4826E+00
  0.4541E+00
  0.4553E+00
  0.4654E+00
  0.4500E+00
  0.3710E+00
  0.2777E+00
  0.2194E+00
  0.2016E+00
  0.2000E+00
  0.2000E+00
  0.2000E+00
  0.2000E+00
  0.2000E+00
  0.2000E+00
  0.2000E+00
  0.2000E+00
  0.2000E+00
  0.2000E+00
  0.2000E+00
  0.2000E+00
  0.2000E+00
  0.2000E+00
  0.2000E+00
  0.1085E+01
  0.1085E+01
  0.1085E+01
  0.1085E+01
  0.1085E+01
  0.1085E+01
  0.1085E+01
  0.1085E+01
  0.1085E+01
  0.1085E+01
  0.1085E+01
  0.1085E+01
  0.1085E+01
  0.1085E+01
  0.1085E+01
  0.1085E+01
  0.1085E+01
  0.1085E+01
  0.1085E+01
  0.1084E+01
  0.1079E+01
  0.1061E+01
  0.1018E+01
  0.9449E+00
  0.8527E+00
  0.7565E+00
  0.6660E+00
  0.5873E+00
  0.5188E+00
  0.4599E+00
  0.4027E+00
  0.3842E+00
  0.3901E+00
  0.4214E+00
  0.4746E+00
  0.4839E+00
  0.4606E+00
  0.4477E+00
  0.4535E+00
  0.4500E+00
  0.4037E+00
  0.3189E+00
  0.2466E+00
  0.2089E+00
  0.2005E+00
  0.2000E+00
  0.2000E+00
  0.2000E+00
  0.2000E+00
  0.2000E+00
  0.2000E+00
  0.2000E+00
  0.2000E+00
  0.2000E+00
  0.2000E+00
  0.2000E+00
  0.2000E+00
  0.2000E+00
  0.2000E+00
  0.2000E+00
  0.1004E+01
  0.1004E+01
  0.1004E+01
  0.1004E+01
  0.1004E+01
  0.1004E+01
  0.1004E+01
  0.1004E+01
  0.1004E+01
  0.1004E+01
  0.1004E+01
  0.1004E+01
  0.1004E+01
  0.1004E+01
  0.1004E+01
  0.1004E+01
  0.1004E+01
  0.1004E+01
  0.1004E+01
  0.1003E+01
  0.9992E+00
  0.9851E+00
  0.9484E+00
  0.8829E+00
  0.7976E+00
  0.7071E+00
  0.6209E+00
  0.5467E+00
  0.4811E+00
  0.4208E+00
  0.3890E+00
  0.3903E+00
  0.4084E+00
  0.4579E+00
  0.4825E+00
  0.4712E+00
  0.4507E+00
  0.4497E+00
  0.4472E+00
  0.4167E+00
  0.3480E+00
  0.2752E+00
  0.2238E+00
  0.2033E+00
  0.2002E+00
  0.2000E+00
  0.2000E+00
  0.2000E+00
  0.2000E+00
  0.2000E+00
  0.2000E+00
  0.2000E+00
  0.2000E+00
  0.2000E+00
  0.2000E+00
  0.2000E+00
  0.2000E+00
  0.2000E+00
  0.2000E+00
  0.2000E+00
  0.9488E+00
  0.9488E+00
  0.9488E+00
  0.9488E+00
  0.9488E+00
  0.9488E+00
  0.9488E+00
  0.9488E+00
  0.9488E+00
  0.9488E+00
  0.9488E+00
  0.9488E+00
  0.9488E+00
  0.9488E+00
  0.9488E+00
  0.9488E+00
  0.9488E+00
  0.9488E+00
  0.9487E+00
  0.9482E+00
  0.9453E+00
  0.9337E+00
  0.9020E+00
  0.8423E+00
  0.7615E+00
  0.6739E+00
  0.5898E+00
  0.5134E+00
  0.4528E+00
  0.4116E+00
  0.4019E+00
  0.4214E+00
  0.4575E+00
  0.4817E+00
  0.4765E+00
  0.4553E+00
  0.4479E+00
  0.4455E+00
  0.4213E+00
  0.3640E+00
  0.2972E+00
  0.2414E+00
  0.2099E+00
  0.2010E+00
  0.2000E+00
  0.2000E+00
  0.2000E+00
  0.2000E+00
  0.2000E+00
  0.2000E+00
  0.2000E+00
  0.2000E+00
  0.2000E+00
  0.2000E+00
  0.2000E+00
  0.2000E+00
  0.2000E+00
  0.2000E+00
  0.2000E+00
  0.2000E+00
  0.9082E+00
  0.9082E+00
  0.9082E+00
  0.9082E+00
  0.9082E+00
  0.9082E+00
  0.9082E+00
  0.9082E+00
  0.9082E+00
  0.9082E+00
  0.9082E+00
  0.9082E+00
  0.9082E+00
  0.9082E+00
  0.9082E+00
  0.9082E+00
  0.9082E+00
  0.9082E+00
  0.9081E+00
  0.9077E+00
  0.9054E+00
  0.8957E+00
  0.8679E+00
  0.8128E+00
  0.7352E+00
  0.6494E+00
  0.5684E+00
  0.5044E+00
  0.4515E+00
  0.4256E+00
  0.4441E+00
  0.4753E+00
  0.4836E+00
  0.4767E+00
  0.4592E+00
  0.4480E+00
  0.4429E+00
  0.4229E+00
  0.3722E+00
  0.3109E+00
  0.2564E+00
  0.2190E+00
  0.2033E+00
  0.2002E+00
  0.2000E+00
  0.2000E+00
  0.2000E+00
  0.2000E+00
  0.2000E+00
  0.2000E+00
  0.2000E+00
  0.2000E+00
  0.2000E+00
  0.2000E+00
  0.2000E+00
  0.2000E+00
  0.2000E+00
  0.2000E+00
  0.2000E+00
  0.2000E+00
  0.8870E+00
  0.8870E+00
  0.8870E+00
  0.8870E+00
  0.8870E+00
  0.8870E+00
  0.8870E+00
  0.8870E+00
  0.8870E+00
  0.8870E+00
  0.8870E+00
  0.8870E+00
  0.8870E+00
  0.8870E+00
  0.8870E+00
  0.8870E+00
  0.8870E+00
  0.8870E+00
  0.8869E+00
  0.8866E+00
  0.8846E+00
  0.8761E+00
  0.8510E+00
  0.7997E+00
  0.7261E+00
  0.6452E+00
  0.5690E+00
  0.5102E+00
  0.4715E+00
  0.4805E+00
  0.4888E+00
  0.4840E+00
  0.4713E+00
  0.4551E+00
  0.4479E+00
  0.4419E+00
  0.4208E+00
  0.3743E+00
  0.3180E+00
  0.2667E+00
  0.2277E+00
  0.2069E+00
  0.2008E+00
  0.2000E+00
  0.2000E+00
  0.2000E+00
  0.2000E+00
  0.2000E+00
  0.2000E+00
  0.2000E+00
  0.2000E+00
  0.2000E+00
  0.2000E+00
  0.2000E+00
  0.2000E+00
  0.2000E+00
  0.2000E+00
  0.2000E+00
  0.2000E+00
  0.2000E+00
  0.8676E+00
  0.8676E+00
  0.8676E+00
  0.8676E+00
  0.8676E+00
  0.8676E+00
  0.8676E+00
  0.8676E+00
  0.8676E+00
  0.8676E+00
  0.8676E+00
  0.8676E+00
  0.8676E+00
  0.8676E+00
  0.8676E+00
  0.8676E+00
  0.8676E+00
  0.8676E+00
  0.8675E+00
  0.8672E+00
  0.8654E+00
  0.8574E+00
  0.8337E+00
  0.7853E+00
  0.7164E+00
  0.6419E+00
  0.5746E+00
  0.5307E+00
  0.5070E+00
  0.4994E+00
  0.4825E+00
  0.4599E+00
  0.4507E+00
  0.4484E+00
  0.4430E+00
  0.4208E+00
  0.3721E+00
  0.3176E+00
  0.2713E+00
  0.2341E+00
  0.2109E+00
  0.2019E+00
  0.2002E+00
  0.2000E+00
  0.2000E+00
  0.2000E+00
  0.2000E+00
  0.2000E+00
  0.2000E+00
  0.2000E+00
  0.2000E+00
  0.2000E+00
  0.2000E+00
  0.2000E+00
  0.2000E+00
  0.2000E+00
  0.2000E+00
  0.2000E+00
  0.2000E+00
  0.2000E+00
  0.8186E+00
  0.8186E+00
  0.8186E+00
  0.8186E+00
  0.8186E+00
  0.8186E+00
  0.8186E+00
  0.8186E+00
  0.8186E+00
  0.8186E+00
  0.8186E+00
  0.8186E+00
  0.8186E+00
  0.8186E+00
  0.8186E+00
  0.8186E+00
  0.8186E+00
  0.8186E+00
  0.8185E+00
  0.8183E+00
  0.8165E+00
  0.8086E+00
  0.7860E+00
  0.7418E+00
  0.6823E+00
  0.6208E+00
  0.5684E+00
  0.5308E+00
  0.5038E+00
  0.4791E+00
  0.4546E+00
  0.4475E+00
  0.4496E+00
  0.4456E+00
  0.4229E+00
  0.3741E+00
  0.3176E+00
  0.2707E+00
  0.2367E+00
  0.2143E+00
  0.2032E+00
  0.2004E+00
  0.2000E+00
  0.2000E+00
  0.2000E+00
  0.2000E+00
  0.2000E+00
  0.2000E+00
  0.2000E+00
  0.2000E+00
  0.2000E+00
  0.2000E+00
  0.2000E+00
  0.2000E+00
  0.2000E+00
  0.2000E+00
  0.2000E+00
  0.2000E+00
  0.2000E+00
  0.2000E+00
  0.7384E+00
  0.7384E+00
  0.7384E+00
  0.7384E+00
  0.7384E+00
  0.7384E+00
  0.7384E+00
  0.7384E+00
  0.7384E+00
  0.7384E+00
  0.7384E+00
  0.7384E+00
  0.7384E+00
  0.7384E+00
  0.7384E+00
  0.7384E+00
  0.7384E+00
  0.7384E+00
  0.7383E+00
  0.7380E+00
  0.7361E+00
  0.7284E+00
  0.7077E+00
  0.6703E+00
  0.6222E+00
  0.5742E+00
  0.5364E+00
  0.5073E+00
  0.4827E+00
  0.4642E+00
  0.4555E+00
  0.4534E+00
  0.4469E+00
  0.4213E+00
  0.3721E+00
  0.3178E+00
  0.2712E+00
  0.2367E+00
  0.2155E+00
  0.2043E+00
  0.2007E+00
  0.2001E+00
  0.2000E+00
  0.2000E+00
  0.2000E+00
  0.2000E+00
  0.2000E+00
  0.2000E+00
  0.2000E+00
  0.2000E+00
  0.2000E+00
  0.2000E+00
  0.2000E+00
  0.2000E+00
  0.2000E+00
  0.2000E+00
  0.2000E+00
  0.2000E+00
  0.2000E+00
  0.2000E+00
  0.6706E+00
  0.6706E+00
  0.6706E+00
  0.6706E+00
  0.6706E+00
  0.6706E+00
  0.6706E+00
  0.6706E+00
  0.6706E+00
  0.6706E+00
  0.6706E+00
  0.6706E+00
  0.6706E+00
  0.6706E+00
  0.6706E+00
  0.6706E+00
  0.6706E+00
  0.6706E+00
  0.6706E+00
  0.6702E+00
  0.6682E+00
  0.6608E+00
  0.6425E+00
  0.6121E+00
  0.5778E+00
  0.5478E+00
  0.5236E+00
  0.5026E+00
  0.4857E+00
  0.4747E+00
  0.4653E+00
  0.4503E+00
  0.4164E+00
  0.3641E+00
  0.3109E+00
  0.2667E+00
  0.2341E+00
  0.2143E+00
  0.2043E+00
  0.2010E+00
  0.2001E+00
  0.2000E+00
  0.2000E+00
  0.2000E+00
  0.2000E+00
  0.2000E+00
  0.2000E+00
  0.2000E+00
  0.2000E+00
  0.2000E+00
  0.2000E+00
  0.2000E+00
  0.2000E+00
  0.2000E+00
  0.2000E+00
  0.2000E+00
  0.2000E+00
  0.2000E+00
  0.2000E+00
  0.2000E+00
  0.6505E+00
  0.6505E+00
  0.6505E+00
  0.6505E+00
  0.6505E+00
  0.6505E+00
  0.6505E+00
  0.6505E+00
  0.6505E+00
  0.6505E+00
  0.6505E+00
  0.6505E+00
  0.6505E+00
  0.6505E+00
  0.6505E+00
  0.6505E+00
  0.6505E+00
  0.6505E+00
  0.6504E+00
  0.6500E+00
  0.6480E+00
  0.6410E+00
  0.6251E+00
  0.6014E+00
  0.5757E+00
  0.5523E+00
  0.5317E+00
  0.5137E+00
  0.4963E+00
  0.4769E+00
  0.4501E+00
  0.4036E+00
  0.3482E+00
  0.2972E+00
  0.2564E+00
  0.2277E+00
  0.2109E+00
  0.2032E+00
  0.2007E+00
  0.2001E+00
  0.2000E+00
  0.2000E+00
  0.2000E+00
  0.2000E+00
  0.2000E+00
  0.2000E+00
  0.2000E+00
  0.2000E+00
  0.2000E+00
  0.2000E+00
  0.2000E+00
  0.2000E+00
  0.2000E+00
  0.2000E+00
  0.2000E+00
  0.2000E+00
  0.2000E+00
  0.2000E+00
  0.2000E+00
  0.2000E+00
  0.6373E+00
  0.6373E+00
  0.6373E+00
  0.6373E+00
  0.6373E+00
  0.6373E+00
  0.6373E+00
  0.6373E+00
  0.6373E+00
  0.6373E+00
  0.6373E+00
  0.6373E+00
  0.6373E+00
  0.6373E+00
  0.6373E+00
  0.6373E+00
  0.6373E+00
  0.6373E+00
  0.6373E+00
  0.6369E+00
  0.6349E+00
  0.6282E+00
  0.6140E+00
  0.5941E+00
  0.5730E+00
  0.5507E+00
  0.5278E+00
  0.5016E+00
  0.4692E+00
  0.4253E+00
  0.3707E+00
  0.3189E+00
  0.2751E+00
  0.2414E+00
  0.2190E+00
  0.2069E+00
  0.2019E+00
  0.2004E+00
  0.2001E+00
  0.2000E+00
  0.2000E+00
  0.2000E+00
  0.2000E+00
  0.2000E+00
  0.2000E+00
  0.2000E+00
  0.2000E+00
  0.2000E+00
  0.2000E+00
  0.2000E+00
  0.2000E+00
  0.2000E+00
  0.2000E+00
  0.2000E+00
  0.2000E+00
  0.2000E+00
  0.2000E+00
  0.2000E+00
  0.2000E+00
  0.2000E+00
  0.5517E+00
  0.5517E+00
  0.5517E+00
  0.5517E+00
  0.5517E+00
  0.5517E+00
  0.5517E+00
  0.5517E+00
  0.5517E+00
  0.5517E+00
  0.5517E+00
  0.5517E+00
  0.5517E+00
  0.5517E+00
  0.5517E+00
  0.5517E+00
  0.5517E+00
  0.5517E+00
  0.5516E+00
  0.5512E+00
  0.5494E+00
  0.5439E+00
  0.5330E+00
  0.5176E+00
  0.4981E+00
  0.4723E+00
  0.4392E+00
  0.4002E+00
  0.3571E+00
  0.3155E+00
  0.2777E+00
  0.2465E+00
  0.2238E+00
  0.2099E+00
  0.2033E+00
  0.2008E+00
  0.2002E+00
  0.2000E+00
  0.2000E+00
  0.2000E+00
  0.2000E+00
  0.2000E+00
  0.2000E+00
  0.2000E+00
  0.2000E+00
  0.2000E+00
  0.2000E+00
  0.2000E+00
  0.2000E+00
  0.2000E+00
  0.2000E+00
  0.2000E+00
  0.2000E+00
  0.2000E+00
  0.2000E+00
  0.2000E+00
  0.2000E+00
  0.2000E+00
  0.2000E+00
  0.2000E+00
  0.3683E+00
  0.3683E+00
  0.3683E+00
  0.3683E+00
  0.3683E+00
  0.3683E+00
  0.3683E+00
  0.3683E+00
  0.3683E+00
  0.3683E+00
  0.3683E+00
  0.3683E+00
  0.3683E+00
  0.3683E+00
  0.3683E+00
  0.3683E+00
  0.3683E+00
  0.3683E+00
  0.3682E+00
  0.3680E+00
  0.3671E+00
  0.3644E+00
  0.3589E+00
  0.3500E+00
  0.3372E+00
  0.3202E+00
  0.2998E+00
  0.2777E+00
  0.2554E+00
  0.2353E+00
  0.2194E+00
  0.2089E+00
  0.2033E+00
  0.2010E+00
  0.2002E+00
  0.2000E+00
  0.2000E+00
  0.2000E+00
  0.2000E+00
  0.2000E+00
  0.2000E+00
  0.2000E+00
  0.2000E+00
  0.2000E+00
  0.2000E+00
  0.2000E+00
  0.2000E+00
  0.2000E+00
  0.2000E+00
  0.2000E+00
  0.2000E+00
  0.2000E+00
  0.2000E+00
  0.2000E+00
  0.2000E+00
  0.2000E+00
  0.2000E+00
  0.2000E+00
  0.2000E+00
  0.2000E+00
  0.2447E+00
  0.2447E+00
  0.2447E+00
  0.2447E+00
  0.2447E+00
  0.2447E+00
  0.2447E+00
  0.2447E+00
  0.2447E+00
  0.2447E+00
  0.2447E+00
  0.2447E+00
  0.2447E+00
  0.2447E+00
  0.2447E+00
  0.2447E+00
  0.2447E+00
  0.2447E+00
  0.2447E+00
  0.2446E+00
  0.2443E+00
  0.2436E+00
  0.2419E+00
  0.2389E+00
  0.2342E+00
  0.2281E+00
  0.2210E+00
  0.2140E+00
  0.2081E+00
  0.2040E+00
  0.2016E+00
  0.2005E+00
  0.2002E+00
  0.2000E+00
  0.2000E+00
  0.2000E+00
  0.2000E+00
  0.2000E+00
  0.2000E+00
  0.2000E+00
  0.2000E+00
  0.2000E+00
  0.2000E+00
  0.2000E+00
  0.2000E+00
  0.2000E+00
  0.2000E+00
  0.2000E+00
  0.2000E+00
  0.2000E+00
  0.2000E+00
  0.2000E+00
  0.2000E+00
  0.2000E+00
  0.2000E+00
  0.2000E+00
  0.2000E+00
  0.2000E+00
  0.2000E+00
  0.2000E+00
  0.2035E+00
  0.2035E+00
  0.2035E+00
  0.2035E+00
  0.2035E+00
  0.2035E+00
  0.2035E+00
  0.2035E+00
  0.2035E+00
  0.2035E+00
  0.2035E+00
  0.2035E+00
  0.2035E+00
  0.2035E+00
  0.2035E+00
  0.2035E+00
  0.2035E+00
  0.2035E+00
  0.2035E+00
  0.2035E+00
  0.2035E+00
  0.2034E+00
  0.2031E+00
  0.2027E+00
  0.2022E+00
  0.2016E+00
  0.2010E+00
  0.2005E+00
  0.2002E+00
  0.2001E+00
  0.2000E+00
  0.2000E+00
  0.2000E+00
  0.2000E+00
  0.2000E+00
  0.2000E+00
  0.2000E+00
  0.2000E+00
  0.2000E+00
  0.2000E+00
  0.2000E+00
  0.2000E+00
  0.2000E+00
  0.2000E+00
  0.2000E+00
  0.2000E+00
  0.2000E+00
  0.2000E+00
  0.2000E+00
  0.2000E+00
  0.2000E+00
  0.2000E+00
  0.2000E+00
  0.2000E+00
  0.2000E+00
  0.2000E+00
  0.2000E+00
  0.2000E+00
  0.2000E+00
  0.2000E+00
  0.2000E+00
  0.2000E+00
  0.2000E+00
  0.2000E+00
  0.2000E+00
  0.2000E+00
  0.2000E+00
  0.2000E+00
  0.2000E+00
  0.2000E+00
  0.2000E+00
  0.2000E+00
  0.2000E+00
  0.2000E+00
  0.2000E+00
  0.2000E+00
  0.2000E+00
  0.2000E+00
  0.2000E+00
  0.2000E+00
  0.2000E+00
  0.2000E+00
  0.2000E+00
  0.2000E+00
  0.2000E+00
  0.2000E+00
  0.2000E+00
  0.2000E+00
  0.2000E+00
  0.2000E+00
  0.2000E+00
  0.2000E+00
  0.2000E+00
  0.2000E+00
  0.2000E+00
  0.2000E+00
  0.2000E+00
  0.2000E+00
  0.2000E+00
  0.2000E+00
  0.2000E+00
  0.2000E+00
  0.2000E+00
  0.2000E+00
  0.2000E+00
  0.2000E+00
  0.2000E+00
  0.2000E+00
  0.2000E+00
  0.2000E+00
  0.2000E+00
  0.2000E+00
  0.2000E+00
  0.2000E+00
  0.2000E+00
  0.2000E+00
  0.2000E+00
  0.2000E+00
  0.2000E+00
  0.2000E+00
  0.2000E+00
  0.2000E+00
  0.2000E+00
  0.2000E+00
  0.2000E+00
  0.2000E+00
  0.2000E+00
  0.2000E+00
  0.2000E+00
  0.2000E+00
  0.2000E+00
  0.2000E+00
  0.2000E+00
  0.2000E+00
  0.2000E+00
  0.2000E+00
  0.2000E+00
  0.2000E+00
  0.2000E+00
  0.2000E+00
  0.2000E+00
  0.2000E+00
  0.2000E+00
  0.2000E+00
  0.2000E+00
  0.2000E+00
  0.2000E+00
  0.2000E+00
  0.2000E+00
  0.2000E+00
  0.2000E+00
  0.2000E+00
  0.2000E+00
  0.2000E+00
  0.2000E+00
  0.2000E+00
  0.2000E+00
  0.2000E+00
  0.2000E+00
  0.2000E+00
  0.2000E+00
  0.2000E+00
  0.2000E+00
  0.2000E+00
  0.2000E+00
  0.2000E+00
  0.2000E+00
  0.2000E+00
  0.2000E+00
  0.2000E+00
  0.2000E+00
  0.2000E+00
  0.2000E+00
  0.2000E+00
  0.2000E+00
  0.2000E+00
  0.2000E+00
  0.2000E+00
  0.2000E+00
  0.2000E+00
  0.2000E+00
  0.2000E+00
  0.2000E+00
  0.2000E+00
  0.2000E+00
  0.2000E+00
  0.2000E+00
  0.2000E+00
  0.2000E+00
  0.2000E+00
  0.2000E+00
  0.2000E+00
  0.2000E+00
  0.2000E+00
  0.2000E+00
  0.2000E+00
  0.2000E+00
  0.2000E+00
  0.2000E+00
  0.2000E+00
  0.2000E+00
  0.2000E+00
  0.2000E+00
  0.2000E+00
  0.2000E+00
  0.2000E+00
  0.2000E+00
  0.2000E+00
  0.2000E+00
  0.2000E+00
  0.2000E+00
  0.2000E+00
  0.2000E+00
  0.2000E+00
  0.2000E+00
  0.2000E+00
  0.2000E+00
  0.2000E+00
  0.2000E+00
  0.2000E+00
  0.2000E+00
  0.2000E+00
  0.2000E+00
  0.2000E+00
  0.2000E+00
  0.2000E+00
  0.2000E+00
  0.2000E+00
  0.2000E+00
  0.2000E+00
  0.2000E+00
  0.2000E+00
  0.2000E+00
  0.2000E+00
  0.2000E+00
  0.2000E+00
  0.2000E+00
  0.2000E+00
  0.2000E+00
  0.2000E+00
  0.2000E+00
  0.2000E+00
  0.2000E+00
  0.2000E+00
  0.2000E+00
  0.2000E+00
  0.2000E+00
  0.2000E+00
  0.2000E+00
  0.2000E+00
  0.2000E+00
  0.2000E+00
  0.2000E+00
  0.2000E+00
  0.2000E+00
  0.2000E+00
  0.2000E+00
  0.2000E+00
  0.2000E+00
  0.2000E+00
  0.2000E+00
  0.2000E+00
  0.2000E+00
  0.2000E+00
  0.2000E+00
  0.2000E+00
  0.2000E+00
  0.2000E+00
  0.2000E+00
  0.2000E+00
  0.2000E+00
  0.2000E+00
  0.2000E+00
  0.2000E+00
  0.2000E+00
  0.2000E+00
  0.2000E+00
  0.2000E+00
  0.2000E+00
  0.2000E+00
  0.2000E+00
  0.2000E+00
  0.2000E+00
  0.2000E+00
  0.2000E+00
  0.2000E+00
  0.2000E+00
  0.2000E+00
  0.2000E+00
  0.2000E+00
  0.2000E+00
  0.2000E+00
  0.2000E+00
  0.2000E+00
  0.2000E+00
  0.2000E+00
  0.2000E+00
  0.2000E+00
  0.2000E+00
  0.2000E+00
  0.2000E+00
  0.2000E+00
  0.2000E+00
  0.2000E+00
  0.2000E+00
  0.2000E+00
  0.2000E+00
  0.2000E+00
  0.2000E+00
  0.2000E+00
  0.2000E+00
  0.2000E+00
  0.2000E+00
  0.2000E+00
  0.2000E+00
  0.2000E+00
  0.2000E+00
  0.2000E+00
  0.2000E+00
  0.2000E+00
  0.2000E+00
  0.2000E+00
  0.2000E+00
  0.2000E+00
  0.2000E+00
  0.2000E+00
  0.2000E+00
  0.2000E+00
  0.2000E+00
  0.2000E+00
  0.2000E+00
  0.2000E+00
  0.2000E+00
  0.2000E+00
  0.2000E+00
  0.2000E+00
  0.2000E+00
  0.2000E+00
  0.2000E+00
  0.2000E+00
  0.2000E+00
  0.2000E+00
  0.2000E+00
  0.2000E+00
  0.2000E+00
  0.2000E+00
  0.2000E+00
  0.2000E+00
  0.2000E+00
  0.2000E+00
  0.2000E+00
  0.2000E+00
  0.2000E+00
  0.2000E+00
  0.2000E+00
  0.2000E+00
  0.2000E+00
  0.2000E+00
  0.2000E+00
  0.2000E+00
  0.2000E+00
  0.2000E+00
  0.2000E+00
  0.2000E+00
  0.2000E+00
  0.2000E+00
  0.2000E+00
  0.2000E+00
  0.2000E+00
  0.2000E+00
  0.2000E+00
  0.2000E+00
  0.2000E+00
  0.2000E+00
  0.2000E+00
  0.2000E+00
  0.2000E+00
  0.2000E+00
  0.2000E+00
  0.2000E+00
  0.2000E+00
  0.2000E+00
  0.2000E+00
  0.2000E+00
  0.2000E+00
  0.2000E+00
  0.2000E+00
  0.2000E+00
  0.2000E+00
  0.2000E+00
  0.2000E+00
  0.2000E+00
  0.2000E+00
  0.2000E+00
  0.2000E+00
  0.2000E+00
  0.2000E+00
  0.2000E+00
  0.2000E+00
  0.2000E+00
  0.2000E+00
  0.2000E+00
  0.2000E+00
  0.2000E+00
  0.2000E+00
  0.2000E+00
  0.2000E+00
  0.2000E+00
  0.2000E+00
  0.2000E+00
  0.2000E+00
  0.2000E+00
  0.2000E+00
  0.2000E+00
  0.2000E+00
  0.2000E+00
  0.2000E+00
  0.2000E+00
  0.2000E+00
  0.2000E+00
  0.2000E+00
  0.2000E+00
  0.2000E+00
  0.2000E+00
  0.2000E+00
  0.2000E+00
  0.2000E+00
  0.2000E+00
  0.2000E+00
  0.2000E+00
  0.2000E+00
  0.2000E+00
  0.2000E+00
  0.2000E+00
  0.2000E+00
  0.2000E+00
  0.2000E+00
  0.2000E+00
  0.2000E+00
  0.2000E+00
  0.2000E+00
  0.2000E+00
  0.2000E+00
  0.2000E+00
  0.2000E+00
  0.2000E+00
  0.2000E+00
  0.2000E+00
  0.2000E+00
  0.2000E+00
  0.2000E+00
  0.2000E+00
  0.2000E+00
  0.2000E+00
  0.2000E+00
  0.2000E+00
  0.2000E+00
  0.2000E+00
  0.2000E+00
  0.2000E+00
  0.2000E+00
  0.2000E+00
  0.2000E+00
  0.2000E+00
  0.2000E+00
  0.2000E+00
  0.2000E+00
  0.2000E+00
  0.2000E+00
  0.2000E+00
  0.2000E+00
  0.2000E+00
  0.2000E+00
  0.2000E+00
  0.2000E+00
  0.2000E+00
  0.2000E+00
  0.2000E+00
  0.2000E+00
  0.2000E+00
  0.2000E+00
  0.2000E+00
  0.2000E+00
  0.2000E+00
  0.2000E+00
  0.2000E+00
  0.2000E+00
  0.2000E+00
  0.2000E+00
  0.2000E+00
  0.2000E+00
  0.2000E+00
  0.2000E+00
  0.2000E+00
  0.2000E+00
  0.2000E+00
  0.2000E+00
  0.2000E+00
  0.2000E+00
  0.2000E+00
  0.2000E+00
  0.2000E+00
  0.2000E+00
  0.2000E+00
  0.2000E+00
  0.2000E+00
  0.2000E+00
  0.2000E+00
  0.2000E+00
  0.2000E+00
  0.2000E+00
  0.2000E+00
  0.2000E+00
  0.2000E+00
  0.2000E+00
  0.2000E+00
  0.2000E+00
  0.2000E+00
  0.2000E+00
  0.2000E+00
  0.2000E+00
  0.2000E+00
  0.2000E+00
  0.2000E+00
  0.2000E+00
  0.2000E+00
  0.2000E+00
  0.2000E+00
  0.2000E+00
  0.2000E+00
  0.2000E+00
  0.2000E+00
  0.2000E+00
  0.2000E+00
  0.2000E+00
  0.2000E+00
  0.2000E+00
  0.2000E+00
  0.2000E+00
  0.2000E+00
  0.2000E+00
  0.2000E+00
  0.2000E+00
  0.2000E+00