# vtk DataFile Version 3.0
vtk output
ASCII
DATASET RECTILINEAR_GRID
DIMENSIONS          61          61 1
X_COORDINATES    61 double
  0.0000E+00
  0.1667E+00
  0.3333E+00
  0.5000E+00
  0.6667E+00
  0.8333E+00
  0.1000E+01
  0.1167E+01
  0.1333E+01
  0.1500E+01
  0.1667E+01
  0.1833E+01
  0.2000E+01
  0.2167E+01
  0.2333E+01
  0.2500E+01
  0.2667E+01
  0.2833E+01
  0.3000E+01
  0.3167E+01
  0.3333E+01
  0.3500E+01
  0.3667E+01
  0.3833E+01
  0.4000E+01
  0.4167E+01
  0.4333E+01
  0.4500E+01
  0.4667E+01
  0.4833E+01
  0.5000E+01
  0.5167E+01
  0.5333E+01
  0.5500E+01
  0.5667E+01
  0.5833E+01
  0.6000E+01
  0.6167E+01
  0.6333E+01
  0.6500E+01
  0.6667E+01
  0.6833E+01
  0.7000E+01
  0.7167E+01
  0.7333E+01
  0.7500E+01
  0.7667E+01
  0.7833E+01
  0.8000E+01
  0.8167E+01
  0.8333E+01
  0.8500E+01
  0.8667E+01
  0.8833E+01
  0.9000E+01
  0.9167E+01
  0.9333E+01
  0.9500E+01
  0.9667E+01
  0.9833E+01
  0.1000E+02
Y_COORDINATES    61 double
  0.0000E+00
  0.1667E+00
  0.3333E+00
  0.5000E+00
  0.6667E+00
  0.8333E+00
  0.1000E+01
  0.1167E+01
  0.1333E+01
  0.1500E+01
  0.1667E+01
  0.1833E+01
  0.2000E+01
  0.2167E+01
  0.2333E+01
  0.2500E+01
  0.2667E+01
  0.2833E+01
  0.3000E+01
  0.3167E+01
  0.3333E+01
  0.3500E+01
  0.3667E+01
  0.3833E+01
  0.4000E+01
  0.4167E+01
  0.4333E+01
  0.4500E+01
  0.4667E+01
  0.4833E+01
  0.5000E+01
  0.5167E+01
  0.5333E+01
  0.5500E+01
  0.5667E+01
  0.5833E+01
  0.6000E+01
  0.6167E+01
  0.6333E+01
  0.6500E+01
  0.6667E+01
  0.6833E+01
  0.7000E+01
  0.7167E+01
  0.7333E+01
  0.7500E+01
  0.7667E+01
  0.7833E+01
  0.8000E+01
  0.8167E+01
  0.8333E+01
  0.8500E+01
  0.8667E+01
  0.8833E+01
  0.9000E+01
  0.9167E+01
  0.9333E+01
  0.9500E+01
  0.9667E+01
  0.9833E+01
  0.1000E+02
Z_COORDINATES 1 double
0
CELL_DATA                 3600
FIELD FieldData 4
density 1                 3600 double
  0.1142E+01
  0.1142E+01
  0.1142E+01
  0.1142E+01
  0.1142E+01
  0.1140E+01
  0.1136E+01
  0.1127E+01
  0.1110E+01
  0.1085E+01
  0.1054E+01
  0.1018E+01
  0.9816E+00
  0.9450E+00
  0.9089E+00
  0.8737E+00
  0.8396E+00
  0.8067E+00
  0.7749E+00
  0.7444E+00
  0.7153E+00
  0.6874E+00
  0.6608E+00
  0.6354E+00
  0.6111E+00
  0.5880E+00
  0.5660E+00
  0.5450E+00
  0.5249E+00
  0.5059E+00
  0.4877E+00
  0.4706E+00
  0.4543E+00
  0.4391E+00
  0.4248E+00
  0.4116E+00
  0.3997E+00
  0.3898E+00
  0.3828E+00
  0.3813E+00
  0.3825E+00
  0.3877E+00
  0.3942E+00
  0.4003E+00
  0.4059E+00
  0.4121E+00
  0.4205E+00
  0.4315E+00
  0.4470E+00
  0.4684E+00
  0.4904E+00
  0.4958E+00
  0.4887E+00
  0.4657E+00
  0.4423E+00
  0.4437E+00
  0.4935E+00
  0.6680E+00
  0.9722E+00
  0.1090E+01
  0.1142E+01
  0.1142E+01
  0.1142E+01
  0.1142E+01
  0.1141E+01
  0.1140E+01
  0.1136E+01
  0.1127E+01
  0.1110E+01
  0.1085E+01
  0.1053E+01
  0.1018E+01
  0.9813E+00
  0.9446E+00
  0.9086E+00
  0.8734E+00
  0.8393E+00
  0.8063E+00
  0.7746E+00
  0.7441E+00
  0.7149E+00
  0.6871E+00
  0.6604E+00
  0.6350E+00
  0.6108E+00
  0.5877E+00
  0.5656E+00
  0.5446E+00
  0.5246E+00
  0.5055E+00
  0.4874E+00
  0.4702E+00
  0.4539E+00
  0.4387E+00
  0.4244E+00
  0.4112E+00
  0.3993E+00
  0.3894E+00
  0.3823E+00
  0.3808E+00
  0.3819E+00
  0.3870E+00
  0.3936E+00
  0.3997E+00
  0.4055E+00
  0.4121E+00
  0.4211E+00
  0.4333E+00
  0.4500E+00
  0.4722E+00
  0.4938E+00
  0.4979E+00
  0.4898E+00
  0.4661E+00
  0.4428E+00
  0.4442E+00
  0.4935E+00
  0.6675E+00
  0.9714E+00
  0.1085E+01
  0.1141E+01
  0.1141E+01
  0.1141E+01
  0.1140E+01
  0.1140E+01
  0.1139E+01
  0.1135E+01
  0.1125E+01
  0.1109E+01
  0.1084E+01
  0.1052E+01
  0.1017E+01
  0.9805E+00
  0.9439E+00
  0.9078E+00
  0.8727E+00
  0.8386E+00
  0.8056E+00
  0.7739E+00
  0.7434E+00
  0.7142E+00
  0.6863E+00
  0.6597E+00
  0.6343E+00
  0.6101E+00
  0.5870E+00
  0.5649E+00
  0.5439E+00
  0.5238E+00
  0.5048E+00
  0.4866E+00
  0.4694E+00
  0.4532E+00
  0.4379E+00
  0.4236E+00
  0.4104E+00
  0.3985E+00
  0.3885E+00
  0.3814E+00
  0.3798E+00
  0.3808E+00
  0.3858E+00
  0.3923E+00
  0.3986E+00
  0.4049E+00
  0.4124E+00
  0.4227E+00
  0.4370E+00
  0.4562E+00
  0.4800E+00
  0.4999E+00
  0.5019E+00
  0.4915E+00
  0.4664E+00
  0.4433E+00
  0.4446E+00
  0.4930E+00
  0.6652E+00
  0.9595E+00
  0.1079E+01
  0.1139E+01
  0.1139E+01
  0.1139E+01
  0.1139E+01
  0.1138E+01
  0.1137E+01
  0.1133E+01
  0.1124E+01
  0.1107E+01
  0.1083E+01
  0.1051E+01
  0.1016E+01
  0.9794E+00
  0.9428E+00
  0.9067E+00
  0.8716E+00
  0.8374E+00
  0.8045E+00
  0.7728E+00
  0.7423E+00
  0.7131E+00
  0.6852E+00
  0.6586E+00
  0.6332E+00
  0.6090E+00
  0.5859E+00
  0.5638E+00
  0.5428E+00
  0.5227E+00
  0.5037E+00
  0.4855E+00
  0.4683E+00
  0.4520E+00
  0.4367E+00
  0.4224E+00
  0.4092E+00
  0.3973E+00
  0.3872E+00
  0.3801E+00
  0.3782E+00
  0.3792E+00
  0.3840E+00
  0.3904E+00
  0.3970E+00
  0.4041E+00
  0.4131E+00
  0.4258E+00
  0.4434E+00
  0.4660E+00
  0.4913E+00
  0.5082E+00
  0.5081E+00
  0.4935E+00
  0.4668E+00
  0.4438E+00
  0.4450E+00
  0.4916E+00
  0.6606E+00
  0.9529E+00
  0.1091E+01
  0.1136E+01
  0.1136E+01
  0.1136E+01
  0.1136E+01
  0.1136E+01
  0.1134E+01
  0.1130E+01
  0.1122E+01
  0.1105E+01
  0.1081E+01
  0.1049E+01
  0.1014E+01
  0.9778E+00
  0.9412E+00
  0.9052E+00
  0.8700E+00
  0.8359E+00
  0.8030E+00
  0.7712E+00
  0.7408E+00
  0.7116E+00
  0.6837E+00
  0.6571E+00
  0.6317E+00
  0.6075E+00
  0.5844E+00
  0.5623E+00
  0.5413E+00
  0.5212E+00
  0.5021E+00
  0.4840E+00
  0.4667E+00
  0.4504E+00
  0.4351E+00
  0.4208E+00
  0.4076E+00
  0.3956E+00
  0.3855E+00
  0.3781E+00
  0.3759E+00
  0.3769E+00
  0.3815E+00
  0.3879E+00
  0.3950E+00
  0.4034E+00
  0.4147E+00
  0.4311E+00
  0.4533E+00
  0.4797E+00
  0.5062E+00
  0.5186E+00
  0.5157E+00
  0.4958E+00
  0.4669E+00
  0.4442E+00
  0.4453E+00
  0.4898E+00
  0.6546E+00
  0.9345E+00
  0.1092E+01
  0.1133E+01
  0.1133E+01
  0.1133E+01
  0.1133E+01
  0.1132E+01
  0.1131E+01
  0.1127E+01
  0.1119E+01
  0.1103E+01
  0.1078E+01
  0.1047E+01
  0.1012E+01
  0.9758E+00
  0.9392E+00
  0.9032E+00
  0.8680E+00
  0.8339E+00
  0.8010E+00
  0.7693E+00
  0.7388E+00
  0.7097E+00
  0.6818E+00
  0.6552E+00
  0.6298E+00
  0.6055E+00
  0.5824E+00
  0.5603E+00
  0.5393E+00
  0.5192E+00
  0.5001E+00
  0.4819E+00
  0.4647E+00
  0.4484E+00
  0.4330E+00
  0.4187E+00
  0.4054E+00
  0.3934E+00
  0.3832E+00
  0.3756E+00
  0.3730E+00
  0.3739E+00
  0.3784E+00
  0.3849E+00
  0.3927E+00
  0.4031E+00
  0.4182E+00
  0.4401E+00
  0.4683E+00
  0.4988E+00
  0.5246E+00
  0.5304E+00
  0.5237E+00
  0.4970E+00
  0.4663E+00
  0.4446E+00
  0.4458E+00
  0.4873E+00
  0.6440E+00
  0.9180E+00
  0.1100E+01
  0.1129E+01
  0.1129E+01
  0.1129E+01
  0.1129E+01
  0.1128E+01
  0.1127E+01
  0.1123E+01
  0.1115E+01
  0.1099E+01
  0.1075E+01
  0.1044E+01
  0.1010E+01
  0.9731E+00
  0.9366E+00
  0.9006E+00
  0.8655E+00
  0.8314E+00
  0.7985E+00
  0.7668E+00
  0.7363E+00
  0.7072E+00
  0.6793E+00
  0.6527E+00
  0.6273E+00
  0.6030E+00
  0.5799E+00
  0.5578E+00
  0.5368E+00
  0.5167E+00
  0.4976E+00
  0.4794E+00
  0.4621E+00
  0.4458E+00
  0.4304E+00
  0.4160E+00
  0.4027E+00
  0.3906E+00
  0.3802E+00
  0.3725E+00
  0.3693E+00
  0.3702E+00
  0.3746E+00
  0.3811E+00
  0.3903E+00
  0.4045E+00
  0.4262E+00
  0.4560E+00
  0.4898E+00
  0.5215E+00
  0.5416E+00
  0.5423E+00
  0.5287E+00
  0.4969E+00
  0.4645E+00
  0.4452E+00
  0.4469E+00
  0.4845E+00
  0.6311E+00
  0.8986E+00
  0.1108E+01
  0.1124E+01
  0.1124E+01
  0.1124E+01
  0.1124E+01
  0.1123E+01
  0.1122E+01
  0.1119E+01
  0.1111E+01
  0.1095E+01
  0.1072E+01
  0.1041E+01
  0.1006E+01
  0.9699E+00
  0.9334E+00
  0.8974E+00
  0.8623E+00
  0.8283E+00
  0.7954E+00
  0.7637E+00
  0.7332E+00
  0.7041E+00
  0.6762E+00
  0.6496E+00
  0.6242E+00
  0.6000E+00
  0.5768E+00
  0.5548E+00
  0.5337E+00
  0.5136E+00
  0.4945E+00
  0.4762E+00
  0.4589E+00
  0.4425E+00
  0.4271E+00
  0.4126E+00
  0.3992E+00
  0.3870E+00
  0.3764E+00
  0.3684E+00
  0.3646E+00
  0.3655E+00
  0.3697E+00
  0.3768E+00
  0.3898E+00
  0.4112E+00
  0.4403E+00
  0.4752E+00
  0.5114E+00
  0.5426E+00
  0.5548E+00
  0.5517E+00
  0.5295E+00
  0.4938E+00
  0.4611E+00
  0.4462E+00
  0.4489E+00
  0.4818E+00
  0.6158E+00
  0.8691E+00
  0.1104E+01
  0.1118E+01
  0.1118E+01
  0.1118E+01
  0.1118E+01
  0.1117E+01
  0.1116E+01
  0.1113E+01
  0.1105E+01
  0.1090E+01
  0.1067E+01
  0.1037E+01
  0.1002E+01
  0.9659E+00
  0.9295E+00
  0.8936E+00
  0.8585E+00
  0.8245E+00
  0.7916E+00
  0.7599E+00
  0.7295E+00
  0.7003E+00
  0.6725E+00
  0.6459E+00
  0.6205E+00
  0.5962E+00
  0.5731E+00
  0.5510E+00
  0.5299E+00
  0.5097E+00
  0.4905E+00
  0.4723E+00
  0.4549E+00
  0.4384E+00
  0.4228E+00
  0.4082E+00
  0.3947E+00
  0.3823E+00
  0.3714E+00
  0.3631E+00
  0.3588E+00
  0.3596E+00
  0.3638E+00
  0.3739E+00
  0.3931E+00
  0.4230E+00
  0.4595E+00
  0.4969E+00
  0.5316E+00
  0.5583E+00
  0.5633E+00
  0.5554E+00
  0.5250E+00
  0.4872E+00
  0.4561E+00
  0.4483E+00
  0.4516E+00
  0.4799E+00
  0.5979E+00
  0.8345E+00
  0.1098E+01
  0.1111E+01
  0.1111E+01
  0.1111E+01
  0.1111E+01
  0.1110E+01
  0.1109E+01
  0.1106E+01
  0.1099E+01
  0.1084E+01
  0.1061E+01
  0.1032E+01
  0.9973E+00
  0.9612E+00
  0.9248E+00
  0.8889E+00
  0.8539E+00
  0.8199E+00
  0.7870E+00
  0.7553E+00
  0.7249E+00
  0.6958E+00
  0.6679E+00
  0.6413E+00
  0.6159E+00
  0.5916E+00
  0.5684E+00
  0.5462E+00
  0.5251E+00
  0.5049E+00
  0.4856E+00
  0.4672E+00
  0.4497E+00
  0.4331E+00
  0.4174E+00
  0.4026E+00
  0.3888E+00
  0.3763E+00
  0.3650E+00
  0.3560E+00
  0.3516E+00
  0.3527E+00
  0.3581E+00
  0.3742E+00
  0.4041E+00
  0.4433E+00
  0.4836E+00
  0.5188E+00
  0.5488E+00
  0.5675E+00
  0.5674E+00
  0.5519E+00
  0.5153E+00
  0.4768E+00
  0.4519E+00
  0.4500E+00
  0.4552E+00
  0.4797E+00
  0.5766E+00
  0.7953E+00
  0.1093E+01
  0.1102E+01
  0.1102E+01
  0.1102E+01
  0.1102E+01
  0.1102E+01
  0.1101E+01
  0.1098E+01
  0.1091E+01
  0.1077E+01
  0.1055E+01
  0.1025E+01
  0.9913E+00
  0.9554E+00
  0.9191E+00
  0.8832E+00
  0.8483E+00
  0.8143E+00
  0.7814E+00
  0.7497E+00
  0.7193E+00
  0.6901E+00
  0.6622E+00
  0.6356E+00
  0.6101E+00
  0.5858E+00
  0.5625E+00
  0.5403E+00
  0.5190E+00
  0.4987E+00
  0.4793E+00
  0.4608E+00
  0.4431E+00
  0.4263E+00
  0.4104E+00
  0.3954E+00
  0.3814E+00
  0.3684E+00
  0.3568E+00
  0.3465E+00
  0.3439E+00
  0.3455E+00
  0.3562E+00
  0.3831E+00
  0.4237E+00
  0.4674E+00
  0.5058E+00
  0.5363E+00
  0.5613E+00
  0.5705E+00
  0.5662E+00
  0.5401E+00
  0.4999E+00
  0.4640E+00
  0.4500E+00
  0.4514E+00
  0.4603E+00
  0.4809E+00
  0.5537E+00
  0.7486E+00
  0.1083E+01
  0.1092E+01
  0.1092E+01
  0.1092E+01
  0.1092E+01
  0.1092E+01
  0.1091E+01
  0.1088E+01
  0.1081E+01
  0.1068E+01
  0.1047E+01
  0.1018E+01
  0.9840E+00
  0.9482E+00
  0.9120E+00
  0.8762E+00
  0.8413E+00
  0.8073E+00
  0.7744E+00
  0.7427E+00
  0.7123E+00
  0.6831E+00
  0.6551E+00
  0.6284E+00
  0.6028E+00
  0.5784E+00
  0.5550E+00
  0.5327E+00
  0.5113E+00
  0.4908E+00
  0.4713E+00
  0.4525E+00
  0.4347E+00
  0.4177E+00
  0.4016E+00
  0.3863E+00
  0.3721E+00
  0.3586E+00
  0.3466E+00
  0.3360E+00
  0.3351E+00
  0.3412E+00
  0.3628E+00
  0.4022E+00
  0.4496E+00
  0.4917E+00
  0.5234E+00
  0.5483E+00
  0.5672E+00
  0.5691E+00
  0.5577E+00
  0.5217E+00
  0.4811E+00
  0.4528E+00
  0.4491E+00
  0.4537E+00
  0.4666E+00
  0.4837E+00
  0.5329E+00
  0.6893E+00
  0.1059E+01
  0.1080E+01
  0.1080E+01
  0.1080E+01
  0.1080E+01
  0.1080E+01
  0.1079E+01
  0.1076E+01
  0.1070E+01
  0.1057E+01
  0.1036E+01
  0.1008E+01
  0.9748E+00
  0.9392E+00
  0.9031E+00
  0.8674E+00
  0.8325E+00
  0.7985E+00
  0.7656E+00
  0.7339E+00
  0.7034E+00
  0.6742E+00
  0.6461E+00
  0.6193E+00
  0.5937E+00
  0.5691E+00
  0.5456E+00
  0.5231E+00
  0.5016E+00
  0.4810E+00
  0.4612E+00
  0.4424E+00
  0.4243E+00
  0.4071E+00
  0.3908E+00
  0.3754E+00
  0.3608E+00
  0.3471E+00
  0.3337E+00
  0.3265E+00
  0.3291E+00
  0.3449E+00
  0.3810E+00
  0.4301E+00
  0.4765E+00
  0.5112E+00
  0.5358E+00
  0.5567E+00
  0.5671E+00
  0.5640E+00
  0.5400E+00
  0.4990E+00
  0.4618E+00
  0.4469E+00
  0.4484E+00
  0.4582E+00
  0.4727E+00
  0.4879E+00
  0.5190E+00
  0.6256E+00
  0.1012E+01
  0.1065E+01
  0.1065E+01
  0.1065E+01
  0.1065E+01
  0.1064E+01
  0.1064E+01
  0.1061E+01
  0.1056E+01
  0.1044E+01
  0.1024E+01
  0.9960E+00
  0.9632E+00
  0.9279E+00
  0.8920E+00
  0.8564E+00
  0.8215E+00
  0.7875E+00
  0.7547E+00
  0.7229E+00
  0.6924E+00
  0.6631E+00
  0.6350E+00
  0.6081E+00
  0.5823E+00
  0.5577E+00
  0.5341E+00
  0.5115E+00
  0.4898E+00
  0.4691E+00
  0.4492E+00
  0.4302E+00
  0.4120E+00
  0.3947E+00
  0.3783E+00
  0.3628E+00
  0.3479E+00
  0.3335E+00
  0.3205E+00
  0.3203E+00
  0.3313E+00
  0.3627E+00
  0.4106E+00
  0.4606E+00
  0.4986E+00
  0.5245E+00
  0.5445E+00
  0.5608E+00
  0.5632E+00
  0.5521E+00
  0.5155E+00
  0.4742E+00
  0.4474E+00
  0.4448E+00
  0.4501E+00
  0.4640E+00
  0.4784E+00
  0.4927E+00
  0.5119E+00
  0.5720E+00
  0.8998E+00
  0.1046E+01
  0.1046E+01
  0.1046E+01
  0.1046E+01
  0.1046E+01
  0.1045E+01
  0.1043E+01
  0.1038E+01
  0.1027E+01
  0.1008E+01
  0.9810E+00
  0.9488E+00
  0.9139E+00
  0.8782E+00
  0.8427E+00
  0.8079E+00
  0.7740E+00
  0.7412E+00
  0.7095E+00
  0.6789E+00
  0.6496E+00
  0.6215E+00
  0.5945E+00
  0.5687E+00
  0.5440E+00
  0.5204E+00
  0.4977E+00
  0.4760E+00
  0.4553E+00
  0.4354E+00
  0.4164E+00
  0.3982E+00
  0.3809E+00
  0.3645E+00
  0.3487E+00
  0.3337E+00
  0.3174E+00
  0.3151E+00
  0.3215E+00
  0.3480E+00
  0.3927E+00
  0.4448E+00
  0.4873E+00
  0.5149E+00
  0.5345E+00
  0.5514E+00
  0.5598E+00
  0.5558E+00
  0.5289E+00
  0.4862E+00
  0.4515E+00
  0.4417E+00
  0.4443E+00
  0.4558E+00
  0.4704E+00
  0.4834E+00
  0.4967E+00
  0.5087E+00
  0.5247E+00
  0.7167E+00
  0.1024E+01
  0.1024E+01
  0.1024E+01
  0.1024E+01
  0.1024E+01
  0.1024E+01
  0.1022E+01
  0.1017E+01
  0.1007E+01
  0.9886E+00
  0.9629E+00
  0.9314E+00
  0.8970E+00
  0.8616E+00
  0.8263E+00
  0.7917E+00
  0.7580E+00
  0.7252E+00
  0.6936E+00
  0.6632E+00
  0.6339E+00
  0.6058E+00
  0.5789E+00
  0.5532E+00
  0.5285E+00
  0.5049E+00
  0.4823E+00
  0.4607E+00
  0.4400E+00
  0.4203E+00
  0.4014E+00
  0.3834E+00
  0.3662E+00
  0.3497E+00
  0.3341E+00
  0.3166E+00
  0.3117E+00
  0.3161E+00
  0.3375E+00
  0.3775E+00
  0.4284E+00
  0.4748E+00
  0.5061E+00
  0.5266E+00
  0.5429E+00
  0.5542E+00
  0.5539E+00
  0.5363E+00
  0.4959E+00
  0.4569E+00
  0.4392E+00
  0.4402E+00
  0.4488E+00
  0.4631E+00
  0.4761E+00
  0.4875E+00
  0.4986E+00
  0.5036E+00
  0.4794E+00
  0.5574E+00
  0.9991E+00
  0.9991E+00
  0.9991E+00
  0.9991E+00
  0.9989E+00
  0.9984E+00
  0.9968E+00
  0.9925E+00
  0.9831E+00
  0.9663E+00
  0.9417E+00
  0.9111E+00
  0.8773E+00
  0.8423E+00
  0.8074E+00
  0.7731E+00
  0.7396E+00
  0.7071E+00
  0.6757E+00
  0.6454E+00
  0.6163E+00
  0.5884E+00
  0.5617E+00
  0.5362E+00
  0.5117E+00
  0.4883E+00
  0.4659E+00
  0.4445E+00
  0.4241E+00
  0.4045E+00
  0.3859E+00
  0.3681E+00
  0.3510E+00
  0.3348E+00
  0.3166E+00
  0.3107E+00
  0.3137E+00
  0.3306E+00
  0.3670E+00
  0.4165E+00
  0.4638E+00
  0.4961E+00
  0.5173E+00
  0.5349E+00
  0.5482E+00
  0.5505E+00
  0.5384E+00
  0.5011E+00
  0.4611E+00
  0.4384E+00
  0.4373E+00
  0.4429E+00
  0.4564E+00
  0.4697E+00
  0.4805E+00
  0.4906E+00
  0.4972E+00
  0.4909E+00
  0.4285E+00
  0.4291E+00
  0.9713E+00
  0.9713E+00
  0.9713E+00
  0.9713E+00
  0.9712E+00
  0.9708E+00
  0.9694E+00
  0.9656E+00
  0.9571E+00
  0.9415E+00
  0.9182E+00
  0.8886E+00
  0.8556E+00
  0.8212E+00
  0.7868E+00
  0.7528E+00
  0.7197E+00
  0.6876E+00
  0.6565E+00
  0.6265E+00
  0.5978E+00
  0.5702E+00
  0.5438E+00
  0.5185E+00
  0.4943E+00
  0.4713E+00
  0.4492E+00
  0.4282E+00
  0.4080E+00
  0.3889E+00
  0.3705E+00
  0.3529E+00
  0.3360E+00
  0.3173E+00
  0.3109E+00
  0.3131E+00
  0.3272E+00
  0.3592E+00
  0.4059E+00
  0.4559E+00
  0.4923E+00
  0.5123E+00
  0.5282E+00
  0.5412E+00
  0.5456E+00
  0.5363E+00
  0.5023E+00
  0.4633E+00
  0.4386E+00
  0.4358E+00
  0.4392E+00
  0.4509E+00
  0.4638E+00
  0.4742E+00
  0.4834E+00
  0.4907E+00
  0.4896E+00
  0.4581E+00
  0.3734E+00
  0.3317E+00
  0.9425E+00
  0.9425E+00
  0.9425E+00
  0.9424E+00
  0.9423E+00
  0.9420E+00
  0.9408E+00
  0.9375E+00
  0.9299E+00
  0.9156E+00
  0.8936E+00
  0.8653E+00
  0.8332E+00
  0.7995E+00
  0.7655E+00
  0.7321E+00
  0.6995E+00
  0.6678E+00
  0.6371E+00
  0.6076E+00
  0.5792E+00
  0.5520E+00
  0.5260E+00
  0.5012E+00
  0.4775E+00
  0.4548E+00
  0.4331E+00
  0.4125E+00
  0.3927E+00
  0.3737E+00
  0.3556E+00
  0.3379E+00
  0.3195E+00
  0.3124E+00
  0.3142E+00
  0.3271E+00
  0.3555E+00
  0.3981E+00
  0.4461E+00
  0.4844E+00
  0.5085E+00
  0.5257E+00
  0.5389E+00
  0.5412E+00
  0.5329E+00
  0.5012E+00
  0.4636E+00
  0.4396E+00
  0.4359E+00
  0.4380E+00
  0.4475E+00
  0.4590E+00
  0.4684E+00
  0.4767E+00
  0.4842E+00
  0.4865E+00
  0.4686E+00
  0.4020E+00
  0.3192E+00
  0.2693E+00
  0.9145E+00
  0.9145E+00
  0.9145E+00
  0.9145E+00
  0.9144E+00
  0.9141E+00
  0.9131E+00
  0.9102E+00
  0.9035E+00
  0.8903E+00
  0.8697E+00
  0.8426E+00
  0.8114E+00
  0.7785E+00
  0.7452E+00
  0.7124E+00
  0.6803E+00
  0.6491E+00
  0.6189E+00
  0.5899E+00
  0.5619E+00
  0.5352E+00
  0.5096E+00
  0.4852E+00
  0.4619E+00
  0.4396E+00
  0.4182E+00
  0.3978E+00
  0.3784E+00
  0.3598E+00
  0.3411E+00
  0.3242E+00
  0.3159E+00
  0.3173E+00
  0.3307E+00
  0.3593E+00
  0.3979E+00
  0.4424E+00
  0.4795E+00
  0.5024E+00
  0.5180E+00
  0.5333E+00
  0.5392E+00
  0.5323E+00
  0.5012E+00
  0.4641E+00
  0.4412E+00
  0.4374E+00
  0.4392E+00
  0.4471E+00
  0.4566E+00
  0.4641E+00
  0.4707E+00
  0.4779E+00
  0.4821E+00
  0.4724E+00
  0.4211E+00
  0.3424E+00
  0.2733E+00
  0.2322E+00
  0.8908E+00
  0.8908E+00
  0.8908E+00
  0.8908E+00
  0.8907E+00
  0.8905E+00
  0.8897E+00
  0.8872E+00
  0.8813E+00
  0.8695E+00
  0.8503E+00
  0.8241E+00
  0.7936E+00
  0.7615E+00
  0.7291E+00
  0.6968E+00
  0.6653E+00
  0.6345E+00
  0.6048E+00
  0.5761E+00
  0.5486E+00
  0.5221E+00
  0.4968E+00
  0.4726E+00
  0.4495E+00
  0.4274E+00
  0.4063E+00
  0.3861E+00
  0.3662E+00
  0.3473E+00
  0.3324E+00
  0.3229E+00
  0.3238E+00
  0.3375E+00
  0.3672E+00
  0.4062E+00
  0.4460E+00
  0.4794E+00
  0.5017E+00
  0.5172E+00
  0.5304E+00
  0.5353E+00
  0.5301E+00
  0.5023E+00
  0.4659E+00
  0.4435E+00
  0.4395E+00
  0.4412E+00
  0.4484E+00
  0.4565E+00
  0.4621E+00
  0.4666E+00
  0.4723E+00
  0.4769E+00
  0.4717E+00
  0.4329E+00
  0.3613E+00
  0.2907E+00
  0.2390E+00
  0.2124E+00
  0.8773E+00
  0.8773E+00
  0.8772E+00
  0.8772E+00
  0.8772E+00
  0.8770E+00
  0.8762E+00
  0.8740E+00
  0.8687E+00
  0.8580E+00
  0.8400E+00
  0.8153E+00
  0.7860E+00
  0.7541E+00
  0.7215E+00
  0.6892E+00
  0.6576E+00
  0.6268E+00
  0.5969E+00
  0.5681E+00
  0.5404E+00
  0.5139E+00
  0.4884E+00
  0.4641E+00
  0.4409E+00
  0.4188E+00
  0.3979E+00
  0.3781E+00
  0.3602E+00
  0.3452E+00
  0.3341E+00
  0.3347E+00
  0.3486E+00
  0.3778E+00
  0.4164E+00
  0.4560E+00
  0.4845E+00
  0.5023E+00
  0.5174E+00
  0.5315E+00
  0.5361E+00
  0.5316E+00
  0.5053E+00
  0.4687E+00
  0.4465E+00
  0.4421E+00
  0.4435E+00
  0.4499E+00
  0.4571E+00
  0.4617E+00
  0.4646E+00
  0.4685E+00
  0.4725E+00
  0.4697E+00
  0.4395E+00
  0.3750E+00
  0.3061E+00
  0.2510E+00
  0.2171E+00
  0.2037E+00
  0.8750E+00
  0.8750E+00
  0.8750E+00
  0.8750E+00
  0.8750E+00
  0.8748E+00
  0.8743E+00
  0.8726E+00
  0.8677E+00
  0.8575E+00
  0.8402E+00
  0.8162E+00
  0.7870E+00
  0.7552E+00
  0.7224E+00
  0.6899E+00
  0.6581E+00
  0.6271E+00
  0.5970E+00
  0.5679E+00
  0.5400E+00
  0.5132E+00
  0.4876E+00
  0.4632E+00
  0.4399E+00
  0.4178E+00
  0.3970E+00
  0.3777E+00
  0.3611E+00
  0.3494E+00
  0.3501E+00
  0.3643E+00
  0.3935E+00
  0.4286E+00
  0.4636E+00
  0.4919E+00
  0.5085E+00
  0.5180E+00
  0.5304E+00
  0.5363E+00
  0.5329E+00
  0.5102E+00
  0.4739E+00
  0.4502E+00
  0.4451E+00
  0.4460E+00
  0.4514E+00
  0.4576E+00
  0.4614E+00
  0.4632E+00
  0.4662E+00
  0.4697E+00
  0.4684E+00
  0.4443E+00
  0.3851E+00
  0.3183E+00
  0.2622E+00
  0.2242E+00
  0.2059E+00
  0.2009E+00
  0.8753E+00
  0.8753E+00
  0.8753E+00
  0.8753E+00
  0.8752E+00
  0.8751E+00
  0.8746E+00
  0.8730E+00
  0.8688E+00
  0.8597E+00
  0.8436E+00
  0.8203E+00
  0.7915E+00
  0.7598E+00
  0.7270E+00
  0.6943E+00
  0.6621E+00
  0.6308E+00
  0.6003E+00
  0.5709E+00
  0.5425E+00
  0.5152E+00
  0.4892E+00
  0.4644E+00
  0.4410E+00
  0.4189E+00
  0.3986E+00
  0.3810E+00
  0.3695E+00
  0.3708E+00
  0.3847E+00
  0.4123E+00
  0.4454E+00
  0.4750E+00
  0.4963E+00
  0.5120E+00
  0.5257E+00
  0.5334E+00
  0.5351E+00
  0.5316E+00
  0.5104E+00
  0.4765E+00
  0.4538E+00
  0.4481E+00
  0.4485E+00
  0.4527E+00
  0.4582E+00
  0.4611E+00
  0.4620E+00
  0.4641E+00
  0.4674E+00
  0.4670E+00
  0.4475E+00
  0.3929E+00
  0.3279E+00
  0.2714E+00
  0.2311E+00
  0.2091E+00
  0.2016E+00
  0.2002E+00
  0.8770E+00
  0.8770E+00
  0.8770E+00
  0.8770E+00
  0.8770E+00
  0.8769E+00
  0.8765E+00
  0.8751E+00
  0.8714E+00
  0.8632E+00
  0.8481E+00
  0.8256E+00
  0.7973E+00
  0.7658E+00
  0.7331E+00
  0.7002E+00
  0.6677E+00
  0.6360E+00
  0.6050E+00
  0.5751E+00
  0.5464E+00
  0.5188E+00
  0.4926E+00
  0.4678E+00
  0.4446E+00
  0.4232E+00
  0.4051E+00
  0.3944E+00
  0.3958E+00
  0.4089E+00
  0.4336E+00
  0.4618E+00
  0.4876E+00
  0.5062E+00
  0.5175E+00
  0.5279E+00
  0.5387E+00
  0.5391E+00
  0.5306E+00
  0.5051E+00
  0.4739E+00
  0.4536E+00
  0.4495E+00
  0.4500E+00
  0.4539E+00
  0.4587E+00
  0.4611E+00
  0.4615E+00
  0.4626E+00
  0.4656E+00
  0.4655E+00
  0.4484E+00
  0.3975E+00
  0.3350E+00
  0.2788E+00
  0.2372E+00
  0.2125E+00
  0.2026E+00
  0.2003E+00
  0.2000E+00
  0.8794E+00
  0.8794E+00
  0.8794E+00
  0.8794E+00
  0.8794E+00
  0.8793E+00
  0.8789E+00
  0.8777E+00
  0.8744E+00
  0.8669E+00
  0.8527E+00
  0.8310E+00
  0.8032E+00
  0.7719E+00
  0.7390E+00
  0.7058E+00
  0.6729E+00
  0.6406E+00
  0.6093E+00
  0.5791E+00
  0.5502E+00
  0.5228E+00
  0.4969E+00
  0.4729E+00
  0.4511E+00
  0.4332E+00
  0.4225E+00
  0.4237E+00
  0.4349E+00
  0.4558E+00
  0.4793E+00
  0.4996E+00
  0.5151E+00
  0.5267E+00
  0.5349E+00
  0.5415E+00
  0.5408E+00
  0.5324E+00
  0.5026E+00
  0.4687E+00
  0.4501E+00
  0.4479E+00
  0.4500E+00
  0.4545E+00
  0.4590E+00
  0.4611E+00
  0.4613E+00
  0.4620E+00
  0.4644E+00
  0.4644E+00
  0.4490E+00
  0.4002E+00
  0.3396E+00
  0.2844E+00
  0.2422E+00
  0.2157E+00
  0.2038E+00
  0.2006E+00
  0.2001E+00
  0.2000E+00
  0.8818E+00
  0.8818E+00
  0.8818E+00
  0.8818E+00
  0.8818E+00
  0.8817E+00
  0.8814E+00
  0.8804E+00
  0.8775E+00
  0.8706E+00
  0.8573E+00
  0.8364E+00
  0.8090E+00
  0.7776E+00
  0.7443E+00
  0.7106E+00
  0.6772E+00
  0.6447E+00
  0.6132E+00
  0.5830E+00
  0.5544E+00
  0.5275E+00
  0.5028E+00
  0.4806E+00
  0.4627E+00
  0.4514E+00
  0.4520E+00
  0.4609E+00
  0.4779E+00
  0.4971E+00
  0.5133E+00
  0.5251E+00
  0.5344E+00
  0.5431E+00
  0.5484E+00
  0.5453E+00
  0.5332E+00
  0.5013E+00
  0.4660E+00
  0.4465E+00
  0.4452E+00
  0.4482E+00
  0.4539E+00
  0.4590E+00
  0.4611E+00
  0.4612E+00
  0.4617E+00
  0.4636E+00
  0.4636E+00
  0.4492E+00
  0.4022E+00
  0.3428E+00
  0.2883E+00
  0.2461E+00
  0.2185E+00
  0.2051E+00
  0.2009E+00
  0.2001E+00
  0.2000E+00
  0.2000E+00
  0.8841E+00
  0.8841E+00
  0.8841E+00
  0.8841E+00
  0.8841E+00
  0.8840E+00
  0.8838E+00
  0.8829E+00
  0.8803E+00
  0.8741E+00
  0.8617E+00
  0.8416E+00
  0.8147E+00
  0.7833E+00
  0.7498E+00
  0.7158E+00
  0.6822E+00
  0.6494E+00
  0.6180E+00
  0.5881E+00
  0.5603E+00
  0.5347E+00
  0.5120E+00
  0.4936E+00
  0.4813E+00
  0.4804E+00
  0.4871E+00
  0.5004E+00
  0.5154E+00
  0.5280E+00
  0.5375E+00
  0.5449E+00
  0.5512E+00
  0.5544E+00
  0.5504E+00
  0.5364E+00
  0.5013E+00
  0.4641E+00
  0.4436E+00
  0.4424E+00
  0.4459E+00
  0.4528E+00
  0.4587E+00
  0.4612E+00
  0.4612E+00
  0.4616E+00
  0.4632E+00
  0.4630E+00
  0.4489E+00
  0.4027E+00
  0.3447E+00
  0.2910E+00
  0.2490E+00
  0.2207E+00
  0.2062E+00
  0.2012E+00
  0.2002E+00
  0.2000E+00
  0.2000E+00
  0.2000E+00
  0.8879E+00
  0.8879E+00
  0.8879E+00
  0.8879E+00
  0.8879E+00
  0.8878E+00
  0.8876E+00
  0.8868E+00
  0.8846E+00
  0.8789E+00
  0.8672E+00
  0.8479E+00
  0.8214E+00
  0.7901E+00
  0.7564E+00
  0.7220E+00
  0.6882E+00
  0.6555E+00
  0.6245E+00
  0.5956E+00
  0.5692E+00
  0.5459E+00
  0.5268E+00
  0.5136E+00
  0.5101E+00
  0.5145E+00
  0.5240E+00
  0.5350E+00
  0.5444E+00
  0.5518E+00
  0.5577E+00
  0.5611E+00
  0.5598E+00
  0.5542E+00
  0.5380E+00
  0.5024E+00
  0.4636E+00
  0.4412E+00
  0.4397E+00
  0.4435E+00
  0.4516E+00
  0.4582E+00
  0.4612E+00
  0.4614E+00
  0.4617E+00
  0.4632E+00
  0.4628E+00
  0.4487E+00
  0.4028E+00
  0.3452E+00
  0.2925E+00
  0.2510E+00
  0.2225E+00
  0.2072E+00
  0.2015E+00
  0.2002E+00
  0.2000E+00
  0.2000E+00
  0.2000E+00
  0.2000E+00
  0.8943E+00
  0.8943E+00
  0.8943E+00
  0.8943E+00
  0.8943E+00
  0.8943E+00
  0.8941E+00
  0.8934E+00
  0.8914E+00
  0.8861E+00
  0.8751E+00
  0.8564E+00
  0.8300E+00
  0.7983E+00
  0.7640E+00
  0.7293E+00
  0.6954E+00
  0.6632E+00
  0.6332E+00
  0.6058E+00
  0.5819E+00
  0.5622E+00
  0.5481E+00
  0.5412E+00
  0.5432E+00
  0.5495E+00
  0.5568E+00
  0.5635E+00
  0.5677E+00
  0.5697E+00
  0.5681E+00
  0.5633E+00
  0.5558E+00
  0.5361E+00
  0.5010E+00
  0.4631E+00
  0.4397E+00
  0.4374E+00
  0.4411E+00
  0.4501E+00
  0.4578E+00
  0.4612E+00
  0.4616E+00
  0.4621E+00
  0.4637E+00
  0.4630E+00
  0.4487E+00
  0.4028E+00
  0.3453E+00
  0.2930E+00
  0.2521E+00
  0.2237E+00
  0.2079E+00
  0.2018E+00
  0.2003E+00
  0.2000E+00
  0.2000E+00
  0.2000E+00
  0.2000E+00
  0.2000E+00
  0.9007E+00
  0.9007E+00
  0.9007E+00
  0.9007E+00
  0.9007E+00
  0.9006E+00
  0.9005E+00
  0.8999E+00
  0.8980E+00
  0.8931E+00
  0.8825E+00
  0.8641E+00
  0.8377E+00
  0.8057E+00
  0.7710E+00
  0.7362E+00
  0.7029E+00
  0.6720E+00
  0.6439E+00
  0.6192E+00
  0.5989E+00
  0.5839E+00
  0.5746E+00
  0.5728E+00
  0.5756E+00
  0.5797E+00
  0.5817E+00
  0.5802E+00
  0.5765E+00
  0.5716E+00
  0.5647E+00
  0.5521E+00
  0.5287E+00
  0.4956E+00
  0.4611E+00
  0.4385E+00
  0.4359E+00
  0.4389E+00
  0.4483E+00
  0.4570E+00
  0.4614E+00
  0.4621E+00
  0.4628E+00
  0.4644E+00
  0.4636E+00
  0.4490E+00
  0.4028E+00
  0.3453E+00
  0.2930E+00
  0.2524E+00
  0.2245E+00
  0.2085E+00
  0.2020E+00
  0.2003E+00
  0.2000E+00
  0.2000E+00
  0.2000E+00
  0.2000E+00
  0.2000E+00
  0.2000E+00
  0.9025E+00
  0.9025E+00
  0.9025E+00
  0.9025E+00
  0.9025E+00
  0.9024E+00
  0.9022E+00
  0.9017E+00
  0.8998E+00
  0.8950E+00
  0.8846E+00
  0.8665E+00
  0.8406E+00
  0.8092E+00
  0.7756E+00
  0.7422E+00
  0.7110E+00
  0.6825E+00
  0.6576E+00
  0.6370E+00
  0.6212E+00
  0.6096E+00
  0.6024E+00
  0.5991E+00
  0.5958E+00
  0.5912E+00
  0.5855E+00
  0.5796E+00
  0.5718E+00
  0.5595E+00
  0.5405E+00
  0.5156E+00
  0.4864E+00
  0.4571E+00
  0.4383E+00
  0.4358E+00
  0.4379E+00
  0.4470E+00
  0.4562E+00
  0.4615E+00
  0.4632E+00
  0.4641E+00
  0.4655E+00
  0.4643E+00
  0.4492E+00
  0.4027E+00
  0.3453E+00
  0.2930E+00
  0.2524E+00
  0.2246E+00
  0.2088E+00
  0.2022E+00
  0.2004E+00
  0.2001E+00
  0.2000E+00
  0.2000E+00
  0.2000E+00
  0.2000E+00
  0.2000E+00
  0.2000E+00
  0.9013E+00
  0.9013E+00
  0.9013E+00
  0.9013E+00
  0.9013E+00
  0.9012E+00
  0.9011E+00
  0.9004E+00
  0.8985E+00
  0.8936E+00
  0.8833E+00
  0.8652E+00
  0.8396E+00
  0.8087E+00
  0.7760E+00
  0.7447E+00
  0.7160E+00
  0.6906E+00
  0.6689E+00
  0.6507E+00
  0.6354E+00
  0.6225E+00
  0.6112E+00
  0.6027E+00
  0.5956E+00
  0.5874E+00
  0.5771E+00
  0.5630E+00
  0.5452E+00
  0.5238E+00
  0.4998E+00
  0.4744E+00
  0.4517E+00
  0.4395E+00
  0.4371E+00
  0.4392E+00
  0.4475E+00
  0.4565E+00
  0.4620E+00
  0.4645E+00
  0.4661E+00
  0.4673E+00
  0.4654E+00
  0.4488E+00
  0.4021E+00
  0.3447E+00
  0.2925E+00
  0.2521E+00
  0.2245E+00
  0.2088E+00
  0.2023E+00
  0.2004E+00
  0.2001E+00
  0.2000E+00
  0.2000E+00
  0.2000E+00
  0.2000E+00
  0.2000E+00
  0.2000E+00
  0.2000E+00
  0.8900E+00
  0.8900E+00
  0.8900E+00
  0.8900E+00
  0.8900E+00
  0.8899E+00
  0.8897E+00
  0.8890E+00
  0.8869E+00
  0.8817E+00
  0.8712E+00
  0.8535E+00
  0.8289E+00
  0.7999E+00
  0.7698E+00
  0.7405E+00
  0.7133E+00
  0.6890E+00
  0.6678E+00
  0.6494E+00
  0.6330E+00
  0.6183E+00
  0.6052E+00
  0.5926E+00
  0.5786E+00
  0.5630E+00
  0.5455E+00
  0.5264E+00
  0.5054E+00
  0.4834E+00
  0.4627E+00
  0.4476E+00
  0.4417E+00
  0.4402E+00
  0.4432E+00
  0.4509E+00
  0.4591E+00
  0.4641E+00
  0.4666E+00
  0.4685E+00
  0.4698E+00
  0.4669E+00
  0.4481E+00
  0.4001E+00
  0.3428E+00
  0.2910E+00
  0.2510E+00
  0.2237E+00
  0.2085E+00
  0.2022E+00
  0.2004E+00
  0.2001E+00
  0.2000E+00
  0.2000E+00
  0.2000E+00
  0.2000E+00
  0.2000E+00
  0.2000E+00
  0.2000E+00
  0.2000E+00
  0.8447E+00
  0.8447E+00
  0.8447E+00
  0.8447E+00
  0.8447E+00
  0.8446E+00
  0.8443E+00
  0.8435E+00
  0.8411E+00
  0.8356E+00
  0.8251E+00
  0.8085E+00
  0.7865E+00
  0.7617E+00
  0.7364E+00
  0.7122E+00
  0.6890E+00
  0.6674E+00
  0.6468E+00
  0.6273E+00
  0.6089E+00
  0.5913E+00
  0.5748E+00
  0.5585E+00
  0.5420E+00
  0.5248E+00
  0.5067E+00
  0.4880E+00
  0.4698E+00
  0.4554E+00
  0.4480E+00
  0.4450E+00
  0.4445E+00
  0.4487E+00
  0.4565E+00
  0.4639E+00
  0.4685E+00
  0.4707E+00
  0.4722E+00
  0.4727E+00
  0.4686E+00
  0.4472E+00
  0.3975E+00
  0.3395E+00
  0.2883E+00
  0.2490E+00
  0.2225E+00
  0.2079E+00
  0.2020E+00
  0.2004E+00
  0.2001E+00
  0.2000E+00
  0.2000E+00
  0.2000E+00
  0.2000E+00
  0.2000E+00
  0.2000E+00
  0.2000E+00
  0.2000E+00
  0.2000E+00
  0.7765E+00
  0.7765E+00
  0.7765E+00
  0.7765E+00
  0.7764E+00
  0.7763E+00
  0.7760E+00
  0.7750E+00
  0.7724E+00
  0.7668E+00
  0.7567E+00
  0.7418E+00
  0.7231E+00
  0.7026E+00
  0.6818E+00
  0.6613E+00
  0.6416E+00
  0.6224E+00
  0.6037E+00
  0.5856E+00
  0.5683E+00
  0.5516E+00
  0.5359E+00
  0.5203E+00
  0.5048E+00
  0.4893E+00
  0.4745E+00
  0.4630E+00
  0.4559E+00
  0.4520E+00
  0.4496E+00
  0.4506E+00
  0.4559E+00
  0.4631E+00
  0.4697E+00
  0.4743E+00
  0.4768E+00
  0.4779E+00
  0.4769E+00
  0.4700E+00
  0.4443E+00
  0.3929E+00
  0.3350E+00
  0.2844E+00
  0.2461E+00
  0.2208E+00
  0.2072E+00
  0.2018E+00
  0.2003E+00
  0.2001E+00
  0.2000E+00
  0.2000E+00
  0.2000E+00
  0.2000E+00
  0.2000E+00
  0.2000E+00
  0.2000E+00
  0.2000E+00
  0.2000E+00
  0.2000E+00
  0.7104E+00
  0.7104E+00
  0.7104E+00
  0.7104E+00