# vtk DataFile Version 3.0
vtk output
ASCII
DATASET RECTILINEAR_GRID
DIMENSIONS          61          61 1
X_COORDINATES    61 double
  0.0000E+00
  0.1667E+00
  0.3333E+00
  0.5000E+00
  0.6667E+00
  0.8333E+00
  0.1000E+01
  0.1167E+01
  0.1333E+01
  0.1500E+01
  0.1667E+01
  0.1833E+01
  0.2000E+01
  0.2167E+01
  0.2333E+01
  0.2500E+01
  0.2667E+01
  0.2833E+01
  0.3000E+01
  0.3167E+01
  0.3333E+01
  0.3500E+01
  0.3667E+01
  0.3833E+01
  0.4000E+01
  0.4167E+01
  0.4333E+01
  0.4500E+01
  0.4667E+01
  0.4833E+01
  0.5000E+01
  0.5167E+01
  0.5333E+01
  0.5500E+01
  0.5667E+01
  0.5833E+01
  0.6000E+01
  0.6167E+01
  0.6333E+01
  0.6500E+01
  0.6667E+01
  0.6833E+01
  0.7000E+01
  0.7167E+01
  0.7333E+01
  0.7500E+01
  0.7667E+01
  0.7833E+01
  0.8000E+01
  0.8167E+01
  0.8333E+01
  0.8500E+01
  0.8667E+01
  0.8833E+01
  0.9000E+01
  0.9167E+01
  0.9333E+01
  0.9500E+01
  0.9667E+01
  0.9833E+01
  0.1000E+02
Y_COORDINATES    61 double
  0.0000E+00
  0.1667E+00
  0.3333E+00
  0.5000E+00
  0.6667E+00
  0.8333E+00
  0.1000E+01
  0.1167E+01
  0.1333E+01
  0.1500E+01
  0.1667E+01
  0.1833E+01
  0.2000E+01
  0.2167E+01
  0.2333E+01
  0.2500E+01
  0.2667E+01
  0.2833E+01
  0.3000E+01
  0.3167E+01
  0.3333E+01
  0.3500E+01
  0.3667E+01
  0.3833E+01
  0.4000E+01
  0.4167E+01
  0.4333E+01
  0.4500E+01
  0.4667E+01
  0.4833E+01
  0.5000E+01
  0.5167E+01
  0.5333E+01
  0.5500E+01
  0.5667E+01
  0.5833E+01
  0.6000E+01
  0.6167E+01
  0.6333E+01
  0.6500E+01
  0.6667E+01
  0.6833E+01
  0.7000E+01
  0.7167E+01
  0.7333E+01
  0.7500E+01
  0.7667E+01
  0.7833E+01
  0.8000E+01
  0.8167E+01
  0.8333E+01
  0.8500E+01
  0.8667E+01
  0.8833E+01
  0.9000E+01
  0.9167E+01
  0.9333E+01
  0.9500E+01
  0.9667E+01
  0.9833E+01
  0.1000E+02
Z_COORDINATES 1 double
0
CELL_DATA                 3600
FIELD FieldData 4
density 1                 3600 double
  0.2846E+01
  0.2846E+01
  0.2846E+01
  0.2846E+01
  0.2846E+01
  0.2846E+01
  0.2846E+01
  0.2846E+01
  0.2846E+01
  0.2846E+01
  0.2846E+01
  0.2846E+01
  0.2846E+01
  0.2846E+01
  0.2846E+01
  0.2844E+01
  0.2836E+01
  0.2809E+01
  0.2745E+01
  0.2636E+01
  0.2490E+01
  0.2328E+01
  0.2164E+01
  0.2005E+01
  0.1856E+01
  0.1717E+01
  0.1589E+01
  0.1471E+01
  0.1363E+01
  0.1264E+01
  0.1174E+01
  0.1091E+01
  0.1017E+01
  0.9528E+00
  0.9065E+00
  0.8825E+00
  0.8824E+00
  0.8854E+00
  0.8853E+00
  0.8731E+00
  0.8206E+00
  0.7464E+00
  0.6771E+00
  0.6375E+00
  0.6341E+00
  0.6358E+00
  0.6091E+00
  0.4534E+00
  0.2887E+00
  0.2142E+00
  0.2003E+00
  0.2000E+00
  0.2000E+00
  0.2000E+00
  0.2000E+00
  0.2000E+00
  0.2000E+00
  0.2000E+00
  0.2000E+00
  0.2000E+00
  0.2759E+01
  0.2759E+01
  0.2759E+01
  0.2759E+01
  0.2759E+01
  0.2759E+01
  0.2759E+01
  0.2759E+01
  0.2759E+01
  0.2759E+01
  0.2759E+01
  0.2759E+01
  0.2759E+01
  0.2759E+01
  0.2758E+01
  0.2756E+01
  0.2748E+01
  0.2723E+01
  0.2662E+01
  0.2556E+01
  0.2415E+01
  0.2259E+01
  0.2100E+01
  0.1946E+01
  0.1802E+01
  0.1668E+01
  0.1545E+01
  0.1431E+01
  0.1328E+01
  0.1233E+01
  0.1146E+01
  0.1067E+01
  0.9956E+00
  0.9347E+00
  0.8909E+00
  0.8690E+00
  0.8699E+00
  0.8744E+00
  0.8746E+00
  0.8629E+00
  0.8107E+00
  0.7368E+00
  0.6680E+00
  0.6294E+00
  0.6266E+00
  0.6293E+00
  0.6034E+00
  0.4499E+00
  0.2874E+00
  0.2139E+00
  0.2003E+00
  0.2000E+00
  0.2000E+00
  0.2000E+00
  0.2000E+00
  0.2000E+00
  0.2000E+00
  0.2000E+00
  0.2000E+00
  0.2000E+00
  0.2610E+01
  0.2610E+01
  0.2610E+01
  0.2610E+01
  0.2610E+01
  0.2610E+01
  0.2610E+01
  0.2610E+01
  0.2610E+01
  0.2610E+01
  0.2610E+01
  0.2610E+01
  0.2610E+01
  0.2610E+01
  0.2610E+01
  0.2608E+01
  0.2601E+01
  0.2578E+01
  0.2521E+01
  0.2422E+01
  0.2289E+01
  0.2140E+01
  0.1990E+01
  0.1845E+01
  0.1708E+01
  0.1581E+01
  0.1465E+01
  0.1359E+01
  0.1262E+01
  0.1173E+01
  0.1092E+01
  0.1018E+01
  0.9522E+00
  0.8961E+00
  0.8563E+00
  0.8380E+00
  0.8400E+00
  0.8469E+00
  0.8480E+00
  0.8374E+00
  0.7869E+00
  0.7152E+00
  0.6489E+00
  0.6137E+00
  0.6124E+00
  0.6174E+00
  0.5929E+00
  0.4431E+00
  0.2846E+00
  0.2132E+00
  0.2003E+00
  0.2000E+00
  0.2000E+00
  0.2000E+00
  0.2000E+00
  0.2000E+00
  0.2000E+00
  0.2000E+00
  0.2000E+00
  0.2000E+00
  0.2438E+01
  0.2438E+01
  0.2438E+01
  0.2438E+01
  0.2438E+01
  0.2438E+01
  0.2438E+01
  0.2438E+01
  0.2438E+01
  0.2438E+01
  0.2438E+01
  0.2438E+01
  0.2438E+01
  0.2438E+01
  0.2438E+01
  0.2436E+01
  0.2430E+01
  0.2409E+01
  0.2358E+01
  0.2266E+01
  0.2142E+01
  0.2003E+01
  0.1861E+01
  0.1724E+01
  0.1595E+01
  0.1477E+01
  0.1368E+01
  0.1268E+01
  0.1178E+01
  0.1095E+01
  0.1020E+01
  0.9520E+00
  0.8912E+00
  0.8398E+00
  0.8039E+00
  0.7891E+00
  0.7915E+00
  0.8003E+00
  0.8026E+00
  0.7937E+00
  0.7484E+00
  0.6825E+00
  0.6222E+00
  0.5933E+00
  0.5949E+00
  0.6028E+00
  0.5790E+00
  0.4321E+00
  0.2798E+00
  0.2120E+00
  0.2003E+00
  0.2000E+00
  0.2000E+00
  0.2000E+00
  0.2000E+00
  0.2000E+00
  0.2000E+00
  0.2000E+00
  0.2000E+00
  0.2000E+00
  0.2262E+01
  0.2262E+01
  0.2262E+01
  0.2262E+01
  0.2262E+01
  0.2262E+01
  0.2262E+01
  0.2262E+01
  0.2262E+01
  0.2262E+01
  0.2262E+01
  0.2262E+01
  0.2262E+01
  0.2262E+01
  0.2262E+01
  0.2261E+01
  0.2255E+01
  0.2236E+01
  0.2190E+01
  0.2107E+01
  0.1992E+01
  0.1861E+01
  0.1729E+01
  0.1600E+01
  0.1479E+01
  0.1368E+01
  0.1266E+01
  0.1173E+01
  0.1088E+01
  0.1011E+01
  0.9414E+00
  0.8781E+00
  0.8218E+00
  0.7746E+00
  0.7417E+00
  0.7290E+00
  0.7308E+00
  0.7401E+00
  0.7443E+00
  0.7379E+00
  0.7012E+00
  0.6446E+00
  0.5933E+00
  0.5727E+00
  0.5771E+00
  0.5875E+00
  0.5625E+00
  0.4164E+00
  0.2728E+00
  0.2103E+00
  0.2002E+00
  0.2000E+00
  0.2000E+00
  0.2000E+00
  0.2000E+00
  0.2000E+00
  0.2000E+00
  0.2000E+00
  0.2000E+00
  0.2000E+00
  0.2091E+01
  0.2091E+01
  0.2091E+01
  0.2091E+01
  0.2091E+01
  0.2091E+01
  0.2091E+01
  0.2091E+01
  0.2091E+01
  0.2091E+01
  0.2091E+01
  0.2091E+01
  0.2091E+01
  0.2091E+01
  0.2091E+01
  0.2090E+01
  0.2085E+01
  0.2069E+01
  0.2028E+01
  0.1952E+01
  0.1846E+01
  0.1724E+01
  0.1600E+01
  0.1480E+01
  0.1366E+01
  0.1262E+01
  0.1166E+01
  0.1079E+01
  0.9995E+00
  0.9278E+00
  0.8626E+00
  0.8037E+00
  0.7514E+00
  0.7076E+00
  0.6777E+00
  0.6651E+00
  0.6664E+00
  0.6756E+00
  0.6825E+00
  0.6794E+00
  0.6534E+00
  0.6082E+00
  0.5663E+00
  0.5529E+00
  0.5600E+00
  0.5722E+00
  0.5433E+00
  0.3957E+00
  0.2638E+00
  0.2082E+00
  0.2001E+00
  0.2000E+00
  0.2000E+00
  0.2000E+00
  0.2000E+00
  0.2000E+00
  0.2000E+00
  0.2000E+00
  0.2000E+00
  0.2000E+00
  0.1929E+01
  0.1929E+01
  0.1929E+01
  0.1929E+01
  0.1929E+01
  0.1929E+01
  0.1929E+01
  0.1929E+01
  0.1929E+01
  0.1929E+01
  0.1929E+01
  0.1929E+01
  0.1929E+01
  0.1929E+01
  0.1929E+01
  0.1928E+01
  0.1924E+01
  0.1911E+01
  0.1875E+01
  0.1806E+01
  0.1709E+01
  0.1595E+01
  0.1479E+01
  0.1366E+01
  0.1259E+01
  0.1161E+01
  0.1072E+01
  0.9898E+00
  0.9156E+00
  0.8484E+00
  0.7875E+00
  0.7324E+00
  0.6837E+00
  0.6428E+00
  0.6150E+00
  0.6026E+00
  0.6038E+00
  0.6134E+00
  0.6245E+00
  0.6254E+00
  0.6117E+00
  0.5767E+00
  0.5413E+00
  0.5333E+00
  0.5441E+00
  0.5570E+00
  0.5195E+00
  0.3715E+00
  0.2529E+00
  0.2059E+00
  0.2001E+00
  0.2000E+00
  0.2000E+00
  0.2000E+00
  0.2000E+00
  0.2000E+00
  0.2000E+00
  0.2000E+00
  0.2000E+00
  0.2000E+00
  0.1780E+01
  0.1780E+01
  0.1780E+01
  0.1780E+01
  0.1780E+01
  0.1780E+01
  0.1780E+01
  0.1780E+01
  0.1780E+01
  0.1780E+01
  0.1780E+01
  0.1780E+01
  0.1780E+01
  0.1780E+01
  0.1780E+01
  0.1779E+01
  0.1776E+01
  0.1764E+01
  0.1733E+01
  0.1672E+01
  0.1582E+01
  0.1477E+01
  0.1368E+01
  0.1261E+01
  0.1161E+01
  0.1069E+01
  0.9846E+00
  0.9078E+00
  0.8383E+00
  0.7753E+00
  0.7182E+00
  0.6667E+00
  0.6211E+00
  0.5827E+00
  0.5564E+00
  0.5446E+00
  0.5463E+00
  0.5575E+00
  0.5753E+00
  0.5831E+00
  0.5778E+00
  0.5497E+00
  0.5189E+00
  0.5159E+00
  0.5314E+00
  0.5418E+00
  0.4904E+00
  0.3442E+00
  0.2410E+00
  0.2038E+00
  0.2001E+00
  0.2000E+00
  0.2000E+00
  0.2000E+00
  0.2000E+00
  0.2000E+00
  0.2000E+00
  0.2000E+00
  0.2000E+00
  0.2000E+00
  0.1642E+01
  0.1642E+01
  0.1642E+01
  0.1642E+01
  0.1642E+01
  0.1642E+01
  0.1642E+01
  0.1642E+01
  0.1642E+01
  0.1642E+01
  0.1642E+01
  0.1642E+01
  0.1642E+01
  0.1642E+01
  0.1642E+01
  0.1641E+01
  0.1639E+01
  0.1629E+01
  0.1602E+01
  0.1548E+01
  0.1466E+01
  0.1368E+01
  0.1266E+01
  0.1166E+01
  0.1071E+01
  0.9846E+00
  0.9052E+00
  0.8331E+00
  0.7678E+00
  0.7087E+00
  0.6552E+00
  0.6068E+00
  0.5641E+00
  0.5282E+00
  0.5014E+00
  0.4942E+00
  0.4967E+00
  0.5112E+00
  0.5395E+00
  0.5562E+00
  0.5520E+00
  0.5238E+00
  0.4987E+00
  0.5005E+00
  0.5223E+00
  0.5247E+00
  0.4544E+00
  0.3153E+00
  0.2292E+00
  0.2022E+00
  0.2000E+00
  0.2000E+00
  0.2000E+00
  0.2000E+00
  0.2000E+00
  0.2000E+00
  0.2000E+00
  0.2000E+00
  0.2000E+00
  0.2000E+00
  0.1516E+01
  0.1516E+01
  0.1516E+01
  0.1516E+01
  0.1516E+01
  0.1516E+01
  0.1516E+01
  0.1516E+01
  0.1516E+01
  0.1516E+01
  0.1516E+01
  0.1516E+01
  0.1516E+01
  0.1516E+01
  0.1516E+01
  0.1515E+01
  0.1513E+01
  0.1505E+01
  0.1482E+01
  0.1434E+01
  0.1359E+01
  0.1268E+01
  0.1173E+01
  0.1079E+01
  0.9897E+00
  0.9078E+00
  0.8330E+00
  0.7652E+00
  0.7039E+00
  0.6484E+00
  0.5982E+00
  0.5528E+00
  0.5124E+00
  0.4791E+00
  0.4533E+00
  0.4503E+00
  0.4559E+00
  0.4802E+00
  0.5237E+00
  0.5418E+00
  0.5329E+00
  0.4980E+00
  0.4818E+00
  0.4909E+00
  0.5132E+00
  0.5051E+00
  0.4104E+00
  0.2865E+00
  0.2186E+00
  0.2011E+00
  0.2000E+00
  0.2000E+00
  0.2000E+00
  0.2000E+00
  0.2000E+00
  0.2000E+00
  0.2000E+00
  0.2000E+00
  0.2000E+00
  0.2000E+00
  0.1400E+01
  0.1400E+01
  0.1400E+01
  0.1400E+01
  0.1400E+01
  0.1400E+01
  0.1400E+01
  0.1400E+01
  0.1400E+01
  0.1400E+01
  0.1400E+01
  0.1400E+01
  0.1400E+01
  0.1400E+01
  0.1400E+01
  0.1400E+01
  0.1398E+01
  0.1392E+01
  0.1372E+01
  0.1330E+01
  0.1262E+01
  0.1178E+01
  0.1088E+01
  0.9994E+00
  0.9155E+00
  0.8383E+00
  0.7678E+00
  0.7039E+00
  0.6462E+00
  0.5941E+00
  0.5468E+00
  0.5043E+00
  0.4661E+00
  0.4344E+00
  0.4137E+00
  0.4141E+00
  0.4305E+00
  0.4796E+00
  0.5310E+00
  0.5353E+00
  0.5105E+00
  0.4734E+00
  0.4694E+00
  0.4867E+00
  0.5030E+00
  0.4762E+00
  0.3626E+00
  0.2602E+00
  0.2104E+00
  0.2005E+00
  0.2000E+00
  0.2000E+00
  0.2000E+00
  0.2000E+00
  0.2000E+00
  0.2000E+00
  0.2000E+00
  0.2000E+00
  0.2000E+00
  0.2000E+00
  0.1295E+01
  0.1295E+01
  0.1295E+01
  0.1295E+01
  0.1295E+01
  0.1295E+01
  0.1295E+01
  0.1295E+01
  0.1295E+01
  0.1295E+01
  0.1295E+01
  0.1295E+01
  0.1295E+01
  0.1295E+01
  0.1295E+01
  0.1295E+01
  0.1293E+01
  0.1288E+01
  0.1271E+01
  0.1234E+01
  0.1173E+01
  0.1095E+01
  0.1011E+01
  0.9277E+00
  0.8483E+00
  0.7753E+00
  0.7087E+00
  0.6484E+00
  0.5941E+00
  0.5450E+00
  0.5006E+00
  0.4601E+00
  0.4246E+00
  0.3922E+00
  0.3851E+00
  0.3960E+00
  0.4359E+00
  0.4984E+00
  0.5305E+00
  0.5215E+00
  0.4811E+00
  0.4572E+00
  0.4631E+00
  0.4862E+00
  0.4879E+00
  0.4315E+00
  0.3182E+00
  0.2377E+00
  0.2049E+00
  0.2002E+00
  0.2000E+00
  0.2000E+00
  0.2000E+00
  0.2000E+00
  0.2000E+00
  0.2000E+00
  0.2000E+00
  0.2000E+00
  0.2000E+00
  0.2000E+00
  0.1199E+01
  0.1199E+01
  0.1199E+01
  0.1199E+01
  0.1199E+01
  0.1199E+01
  0.1199E+01
  0.1199E+01
  0.1199E+01
  0.1199E+01
  0.1199E+01
  0.1199E+01
  0.1199E+01
  0.1199E+01
  0.1199E+01
  0.1198E+01
  0.1197E+01
  0.1193E+01
  0.1179E+01
  0.1147E+01
  0.1092E+01
  0.1020E+01
  0.9413E+00
  0.8625E+00
  0.7874E+00
  0.7182E+00
  0.6551E+00
  0.5981E+00
  0.5468E+00
  0.5006E+00
  0.4583E+00
  0.4209E+00
  0.3839E+00
  0.3641E+00
  0.3725E+00
  0.4048E+00
  0.4630E+00
  0.5171E+00
  0.5203E+00
  0.4931E+00
  0.4544E+00
  0.4502E+00
  0.4651E+00
  0.4801E+00
  0.4628E+00
  0.3758E+00
  0.2792E+00
  0.2206E+00
  0.2020E+00
  0.2001E+00
  0.2000E+00
  0.2000E+00
  0.2000E+00
  0.2000E+00
  0.2000E+00
  0.2000E+00
  0.2000E+00
  0.2000E+00
  0.2000E+00
  0.2000E+00
  0.1111E+01
  0.1111E+01
  0.1111E+01
  0.1111E+01
  0.1111E+01
  0.1111E+01
  0.1111E+01
  0.1111E+01
  0.1111E+01
  0.1111E+01
  0.1111E+01
  0.1111E+01
  0.1111E+01
  0.1111E+01
  0.1111E+01
  0.1111E+01
  0.1110E+01
  0.1107E+01
  0.1095E+01
  0.1068E+01
  0.1018E+01
  0.9519E+00
  0.8780E+00
  0.8036E+00
  0.7323E+00
  0.6666E+00
  0.6067E+00
  0.5528E+00
  0.5043E+00
  0.4600E+00
  0.4208E+00
  0.3823E+00
  0.3552E+00
  0.3593E+00
  0.3821E+00
  0.4310E+00
  0.4967E+00
  0.5169E+00
  0.5021E+00
  0.4613E+00
  0.4437E+00
  0.4507E+00
  0.4682E+00
  0.4666E+00
  0.4162E+00
  0.3225E+00
  0.2477E+00
  0.2095E+00
  0.2007E+00
  0.2000E+00
  0.2000E+00
  0.2000E+00
  0.2000E+00
  0.2000E+00
  0.2000E+00
  0.2000E+00
  0.2000E+00
  0.2000E+00
  0.2000E+00
  0.2000E+00
  0.1033E+01
  0.1033E+01
  0.1033E+01
  0.1033E+01
  0.1033E+01
  0.1033E+01
  0.1033E+01
  0.1033E+01
  0.1033E+01
  0.1033E+01
  0.1033E+01
  0.1033E+01
  0.1033E+01
  0.1033E+01
  0.1033E+01
  0.1033E+01
  0.1032E+01
  0.1029E+01
  0.1020E+01
  0.9962E+00
  0.9522E+00
  0.8911E+00
  0.8217E+00
  0.7513E+00
  0.6836E+00
  0.6210E+00
  0.5640E+00
  0.5124E+00
  0.4661E+00
  0.4246E+00
  0.3839E+00
  0.3551E+00
  0.3542E+00
  0.3688E+00
  0.4130E+00
  0.4766E+00
  0.5112E+00
  0.5050E+00
  0.4700E+00
  0.4437E+00
  0.4446E+00
  0.4582E+00
  0.4634E+00
  0.4358E+00
  0.3574E+00
  0.2783E+00
  0.2248E+00
  0.2036E+00
  0.2002E+00
  0.2000E+00
  0.2000E+00
  0.2000E+00
  0.2000E+00
  0.2000E+00
  0.2000E+00
  0.2000E+00
  0.2000E+00
  0.2000E+00
  0.2000E+00
  0.2000E+00
  0.9657E+00
  0.9657E+00
  0.9657E+00
  0.9657E+00
  0.9657E+00
  0.9657E+00
  0.9657E+00
  0.9657E+00
  0.9657E+00
  0.9657E+00
  0.9657E+00
  0.9657E+00
  0.9657E+00
  0.9657E+00
  0.9657E+00
  0.9656E+00
  0.9652E+00
  0.9630E+00
  0.9554E+00
  0.9351E+00
  0.8960E+00
  0.8397E+00
  0.7745E+00
  0.7076E+00
  0.6428E+00
  0.5826E+00
  0.5281E+00
  0.4791E+00
  0.4344E+00
  0.3920E+00
  0.3641E+00
  0.3594E+00
  0.3687E+00
  0.3951E+00
  0.4542E+00
  0.5084E+00
  0.5085E+00
  0.4787E+00
  0.4469E+00
  0.4437E+00
  0.4524E+00
  0.4595E+00
  0.4438E+00
  0.3812E+00
  0.3048E+00
  0.2442E+00
  0.2106E+00
  0.2011E+00
  0.2000E+00
  0.2000E+00
  0.2000E+00
  0.2000E+00
  0.2000E+00
  0.2000E+00
  0.2000E+00
  0.2000E+00
  0.2000E+00
  0.2000E+00
  0.2000E+00
  0.2000E+00
  0.9168E+00
  0.9168E+00
  0.9168E+00
  0.9168E+00
  0.9168E+00
  0.9168E+00
  0.9168E+00
  0.9168E+00
  0.9168E+00
  0.9168E+00
  0.9168E+00
  0.9168E+00
  0.9168E+00
  0.9168E+00
  0.9168E+00
  0.9167E+00
  0.9164E+00
  0.9147E+00
  0.9085E+00
  0.8912E+00
  0.8563E+00
  0.8038E+00
  0.7416E+00
  0.6776E+00
  0.6150E+00
  0.5564E+00
  0.5013E+00
  0.4533E+00
  0.4136E+00
  0.3853E+00
  0.3725E+00
  0.3820E+00
  0.4129E+00
  0.4543E+00
  0.4956E+00
  0.5057E+00
  0.4855E+00
  0.4520E+00
  0.4444E+00
  0.4505E+00
  0.4574E+00
  0.4480E+00
  0.3965E+00
  0.3244E+00
  0.2623E+00
  0.2209E+00
  0.2036E+00
  0.2003E+00
  0.2000E+00
  0.2000E+00
  0.2000E+00
  0.2000E+00
  0.2000E+00
  0.2000E+00
  0.2000E+00
  0.2000E+00
  0.2000E+00
  0.2000E+00
  0.2000E+00
  0.2000E+00
  0.8906E+00
  0.8906E+00
  0.8906E+00
  0.8906E+00
  0.8906E+00
  0.8906E+00
  0.8906E+00
  0.8906E+00
  0.8906E+00
  0.8906E+00
  0.8906E+00
  0.8906E+00
  0.8906E+00
  0.8906E+00
  0.8906E+00
  0.8906E+00
  0.8904E+00
  0.8891E+00
  0.8840E+00
  0.8693E+00
  0.8380E+00
  0.7891E+00
  0.7289E+00
  0.6650E+00
  0.6025E+00
  0.5446E+00
  0.4943E+00
  0.4502E+00
  0.4141E+00
  0.3958E+00
  0.4047E+00
  0.4313E+00
  0.4761E+00
  0.5087E+00
  0.5048E+00
  0.4823E+00
  0.4533E+00
  0.4444E+00
  0.4491E+00
  0.4556E+00
  0.4491E+00
  0.4061E+00
  0.3387E+00
  0.2768E+00
  0.2317E+00
  0.2079E+00
  0.2010E+00
  0.2001E+00
  0.2000E+00
  0.2000E+00
  0.2000E+00
  0.2000E+00
  0.2000E+00
  0.2000E+00
  0.2000E+00
  0.2000E+00
  0.2000E+00
  0.2000E+00
  0.2000E+00
  0.2000E+00
  0.8896E+00
  0.8896E+00
  0.8896E+00
  0.8896E+00
  0.8896E+00
  0.8896E+00
  0.8896E+00
  0.8896E+00
  0.8896E+00
  0.8896E+00
  0.8896E+00
  0.8896E+00
  0.8896E+00
  0.8896E+00
  0.8896E+00
  0.8896E+00
  0.8894E+00
  0.8883E+00
  0.8837E+00
  0.8701E+00
  0.8400E+00
  0.7915E+00
  0.7308E+00
  0.6664E+00
  0.6037E+00
  0.5463E+00
  0.4967E+00
  0.4559E+00
  0.4304E+00
  0.4361E+00
  0.4632E+00
  0.4969E+00
  0.5116E+00
  0.5087E+00
  0.4865E+00
  0.4538E+00
  0.4443E+00
  0.4467E+00
  0.4535E+00
  0.4475E+00
  0.4078E+00
  0.3470E+00
  0.2879E+00
  0.2411E+00
  0.2131E+00
  0.2023E+00
  0.2002E+00
  0.2000E+00
  0.2000E+00
  0.2000E+00
  0.2000E+00
  0.2000E+00
  0.2000E+00
  0.2000E+00
  0.2000E+00
  0.2000E+00
  0.2000E+00
  0.2000E+00
  0.2000E+00
  0.2000E+00
  0.8914E+00
  0.8914E+00
  0.8914E+00
  0.8914E+00
  0.8914E+00
  0.8914E+00
  0.8914E+00
  0.8914E+00
  0.8914E+00
  0.8914E+00
  0.8914E+00
  0.8914E+00
  0.8914E+00
  0.8914E+00
  0.8914E+00
  0.8914E+00
  0.8912E+00
  0.8903E+00
  0.8865E+00
  0.8746E+00
  0.8469E+00
  0.8003E+00
  0.7401E+00
  0.6756E+00
  0.6134E+00
  0.5575E+00
  0.5113E+00
  0.4800E+00
  0.4802E+00
  0.4979E+00
  0.5170E+00
  0.5164E+00
  0.5057E+00
  0.4786E+00
  0.4521E+00
  0.4452E+00
  0.4473E+00
  0.4506E+00
  0.4449E+00
  0.4071E+00
  0.3480E+00
  0.2939E+00
  0.2487E+00
  0.2181E+00
  0.2041E+00
  0.2005E+00
  0.2000E+00
  0.2000E+00
  0.2000E+00
  0.2000E+00
  0.2000E+00
  0.2000E+00
  0.2000E+00
  0.2000E+00
  0.2000E+00
  0.2000E+00
  0.2000E+00
  0.2000E+00
  0.2000E+00
  0.2000E+00
  0.8909E+00
  0.8909E+00
  0.8909E+00
  0.8909E+00
  0.8909E+00
  0.8909E+00
  0.8909E+00
  0.8909E+00
  0.8909E+00
  0.8909E+00
  0.8909E+00
  0.8909E+00
  0.8909E+00
  0.8909E+00
  0.8909E+00
  0.8909E+00
  0.8907E+00
  0.8899E+00
  0.8863E+00
  0.8748E+00
  0.8480E+00
  0.8026E+00
  0.7443E+00
  0.6824E+00
  0.6246E+00
  0.5754E+00
  0.5396E+00
  0.5236E+00
  0.5309E+00
  0.5303E+00
  0.5207E+00
  0.5024E+00
  0.4705E+00
  0.4471E+00
  0.4447E+00
  0.4493E+00
  0.4540E+00
  0.4453E+00
  0.4045E+00
  0.3475E+00
  0.2951E+00
  0.2533E+00
  0.2226E+00
  0.2061E+00
  0.2010E+00
  0.2001E+00
  0.2000E+00
  0.2000E+00
  0.2000E+00
  0.2000E+00
  0.2000E+00
  0.2000E+00
  0.2000E+00
  0.2000E+00
  0.2000E+00
  0.2000E+00
  0.2000E+00
  0.2000E+00
  0.2000E+00
  0.2000E+00
  0.8785E+00
  0.8785E+00
  0.8785E+00
  0.8785E+00
  0.8785E+00
  0.8785E+00
  0.8785E+00
  0.8785E+00
  0.8785E+00
  0.8785E+00
  0.8785E+00
  0.8785E+00
  0.8785E+00
  0.8785E+00
  0.8785E+00
  0.8785E+00
  0.8784E+00
  0.8775E+00
  0.8741E+00
  0.8631E+00
  0.8374E+00
  0.7936E+00
  0.7378E+00
  0.6793E+00
  0.6253E+00
  0.5832E+00
  0.5562E+00
  0.5417E+00
  0.5356E+00
  0.5214E+00
  0.4925E+00
  0.4607E+00
  0.4437E+00
  0.4438E+00
  0.4500E+00
  0.4556E+00
  0.4478E+00
  0.4072E+00
  0.3476E+00
  0.2949E+00
  0.2542E+00
  0.2254E+00
  0.2081E+00
  0.2016E+00
  0.2002E+00
  0.2000E+00
  0.2000E+00
  0.2000E+00
  0.2000E+00
  0.2000E+00
  0.2000E+00
  0.2000E+00
  0.2000E+00
  0.2000E+00
  0.2000E+00
  0.2000E+00
  0.2000E+00
  0.2000E+00
  0.2000E+00
  0.2000E+00
  0.8264E+00
  0.8264E+00
  0.8264E+00
  0.8264E+00
  0.8264E+00
  0.8264E+00
  0.8264E+00
  0.8264E+00
  0.8264E+00
  0.8264E+00
  0.8264E+00
  0.8264E+00
  0.8264E+00
  0.8264E+00
  0.8264E+00
  0.8263E+00
  0.8261E+00
  0.8252E+00
  0.8217E+00
  0.8109E+00
  0.7868E+00
  0.7483E+00
  0.7010E+00
  0.6533E+00
  0.6117E+00
  0.5778E+00
  0.5520E+00
  0.5329E+00
  0.5103E+00
  0.4813E+00
  0.4547E+00
  0.4435E+00
  0.4445E+00
  0.4522E+00
  0.4574E+00
  0.4491E+00
  0.4077E+00
  0.3481E+00
  0.2952E+00
  0.2542E+00
  0.2260E+00
  0.2094E+00
  0.2022E+00
  0.2003E+00
  0.2000E+00
  0.2000E+00
  0.2000E+00
  0.2000E+00
  0.2000E+00
  0.2000E+00
  0.2000E+00
  0.2000E+00
  0.2000E+00
  0.2000E+00
  0.2000E+00
  0.2000E+00
  0.2000E+00
  0.2000E+00
  0.2000E+00
  0.2000E+00
  0.7525E+00
  0.7525E+00
  0.7525E+00
  0.7525E+00
  0.7525E+00
  0.7525E+00
  0.7525E+00
  0.7525E+00
  0.7525E+00
  0.7525E+00
  0.7525E+00
  0.7525E+00
  0.7525E+00
  0.7525E+00
  0.7525E+00
  0.7525E+00
  0.7523E+00
  0.7513E+00
  0.7476E+00
  0.7370E+00
  0.7151E+00
  0.6824E+00
  0.6444E+00
  0.6081E+00
  0.5766E+00
  0.5498E+00
  0.5238E+00
  0.4978E+00
  0.4737E+00
  0.4569E+00
  0.4498E+00
  0.4510E+00
  0.4581E+00
  0.4593E+00
  0.4482E+00
  0.4059E+00
  0.3470E+00
  0.2940E+00
  0.2533E+00
  0.2254E+00
  0.2094E+00
  0.2025E+00
  0.2004E+00
  0.2001E+00
  0.2000E+00
  0.2000E+00
  0.2000E+00
  0.2000E+00
  0.2000E+00
  0.2000E+00
  0.2000E+00
  0.2000E+00
  0.2000E+00
  0.2000E+00
  0.2000E+00
  0.2000E+00
  0.2000E+00
  0.2000E+00
  0.2000E+00
  0.2000E+00
  0.6836E+00
  0.6836E+00
  0.6836E+00
  0.6836E+00
  0.6836E+00
  0.6836E+00
  0.6836E+00
  0.6836E+00
  0.6836E+00
  0.6836E+00
  0.6836E+00
  0.6836E+00
  0.6836E+00
  0.6836E+00
  0.6835E+00
  0.6835E+00
  0.6833E+00
  0.6822E+00
  0.6784E+00
  0.6682E+00
  0.6488E+00
  0.6221E+00
  0.5932E+00
  0.5662E+00
  0.5412E+00
  0.5189E+00
  0.4986E+00
  0.4819E+00
  0.4692E+00
  0.4632E+00
  0.4653E+00
  0.4681E+00
  0.4629E+00
  0.4440E+00
  0.3961E+00
  0.3386E+00
  0.2879E+00
  0.2487E+00
  0.2226E+00
  0.2081E+00
  0.2022E+00
  0.2004E+00
  0.2001E+00
  0.2000E+00
  0.2000E+00
  0.2000E+00
  0.2000E+00
  0.2000E+00
  0.2000E+00
  0.2000E+00
  0.2000E+00
  0.2000E+00
  0.2000E+00
  0.2000E+00
  0.2000E+00
  0.2000E+00
  0.2000E+00
  0.2000E+00
  0.2000E+00
  0.2000E+00
  0.6441E+00
  0.6441E+00
  0.6441E+00
  0.6441E+00
  0.6441E+00
  0.6441E+00
  0.6441E+00
  0.6441E+00
  0.6441E+00
  0.6441E+00
  0.6441E+00
  0.6441E+00
  0.6441E+00
  0.6441E+00
  0.6440E+00
  0.6440E+00
  0.6438E+00
  0.6426E+00
  0.6389E+00
  0.6297E+00
  0.6137E+00
  0.5932E+00
  0.5727E+00
  0.5529E+00
  0.5333E+00
  0.5158E+00
  0.5006E+00
  0.4909E+00
  0.4868E+00
  0.4857E+00
  0.4804E+00
  0.4669E+00
  0.4359E+00
  0.3809E+00
  0.3244E+00
  0.2768E+00
  0.2411E+00
  0.2181E+00
  0.2062E+00
  0.2016E+00
  0.2003E+00
  0.2000E+00
  0.2000E+00
  0.2000E+00
  0.2000E+00
  0.2000E+00
  0.2000E+00
  0.2000E+00
  0.2000E+00
  0.2000E+00
  0.2000E+00
  0.2000E+00
  0.2000E+00
  0.2000E+00
  0.2000E+00
  0.2000E+00
  0.2000E+00
  0.2000E+00
  0.2000E+00
  0.2000E+00
  0.6405E+00
  0.6405E+00
  0.6405E+00
  0.6405E+00
  0.6405E+00
  0.6405E+00
  0.6405E+00
  0.6405E+00
  0.6405E+00
  0.6405E+00
  0.6405E+00
  0.6405E+00
  0.6405E+00
  0.6405E+00
  0.6405E+00
  0.6404E+00
  0.6402E+00
  0.6391E+00
  0.6354E+00
  0.6268E+00
  0.6125E+00
  0.5949E+00
  0.5770E+00
  0.5600E+00
  0.5441E+00
  0.5315E+00
  0.5223E+00
  0.5133E+00
  0.5029E+00
  0.4879E+00
  0.4630E+00
  0.4161E+00
  0.3575E+00
  0.3047E+00
  0.2623E+00
  0.2317E+00
  0.2131E+00
  0.2041E+00
  0.2010E+00
  0.2002E+00
  0.2000E+00
  0.2000E+00
  0.2000E+00
  0.2000E+00
  0.2000E+00
  0.2000E+00
  0.2000E+00
  0.2000E+00
  0.2000E+00
  0.2000E+00
  0.2000E+00
  0.2000E+00
  0.2000E+00
  0.2000E+00
  0.2000E+00
  0.2000E+00
  0.2000E+00
  0.2000E+00
  0.2000E+00
  0.2000E+00
  0.6417E+00
  0.6417E+00
  0.6417E+00
  0.6417E+00
  0.6417E+00
  0.6417E+00
  0.6417E+00
  0.6417E+00
  0.6417E+00
  0.6417E+00
  0.6417E+00
  0.6417E+00
  0.6417E+00
  0.6417E+00
  0.6417E+00
  0.6416E+00
  0.6414E+00
  0.6404E+00
  0.6371E+00
  0.6295E+00
  0.6174E+00
  0.6028E+00
  0.5875E+00
  0.5722E+00
  0.5570E+00
  0.5417E+00
  0.5247E+00
  0.5052E+00
  0.4760E+00
  0.4315E+00
  0.3756E+00
  0.3225E+00
  0.2782E+00
  0.2442E+00
  0.2209E+00
  0.2079E+00
  0.2023E+00
  0.2005E+00
  0.2001E+00
  0.2000E+00
  0.2000E+00
  0.2000E+00
  0.2000E+00
  0.2000E+00
  0.2000E+00
  0.2000E+00
  0.2000E+00
  0.2000E+00
  0.2000E+00
  0.2000E+00
  0.2000E+00
  0.2000E+00
  0.2000E+00
  0.2000E+00
  0.2000E+00
  0.2000E+00
  0.2000E+00
  0.2000E+00
  0.2000E+00
  0.2000E+00
  0.6145E+00
  0.6145E+00
  0.6145E+00
  0.6145E+00
  0.6145E+00
  0.6145E+00
  0.6145E+00
  0.6145E+00
  0.6145E+00
  0.6145E+00
  0.6145E+00
  0.6145E+00
  0.6145E+00
  0.6145E+00
  0.6145E+00
  0.6145E+00
  0.6142E+00
  0.6133E+00
  0.6103E+00
  0.6036E+00
  0.5928E+00
  0.5789E+00
  0.5624E+00
  0.5432E+00
  0.5194E+00
  0.4903E+00
  0.4544E+00
  0.4104E+00
  0.3626E+00
  0.3182E+00
  0.2791E+00
  0.2477E+00
  0.2248E+00
  0.2106E+00
  0.2036E+00
  0.2010E+00
  0.2002E+00
  0.2000E+00
  0.2000E+00
  0.2000E+00
  0.2000E+00
  0.2000E+00
  0.2000E+00
  0.2000E+00
  0.2000E+00
  0.2000E+00
  0.2000E+00
  0.2000E+00
  0.2000E+00
  0.2000E+00
  0.2000E+00
  0.2000E+00
  0.2000E+00
  0.2000E+00
  0.2000E+00
  0.2000E+00
  0.2000E+00
  0.2000E+00
  0.2000E+00
  0.2000E+00
  0.4570E+00
  0.4570E+00
  0.4570E+00
  0.4570E+00
  0.4570E+00
  0.4570E+00
  0.4570E+00
  0.4570E+00
  0.4570E+00
  0.4570E+00
  0.4570E+00
  0.4570E+00
  0.4570E+00
  0.4570E+00
  0.4570E+00
  0.4570E+00
  0.4568E+00
  0.4562E+00
  0.4543E+00
  0.4502E+00
  0.4431E+00
  0.4320E+00
  0.4163E+00
  0.3956E+00
  0.3714E+00
  0.3442E+00
  0.3152E+00
  0.2865E+00
  0.2602E+00
  0.2377E+00
  0.2206E+00
  0.2095E+00
  0.2036E+00
  0.2011E+00
  0.2003E+00
  0.2001E+00
  0.2000E+00
  0.2000E+00
  0.2000E+00
  0.2000E+00
  0.2000E+00
  0.2000E+00
  0.2000E+00
  0.2000E+00
  0.2000E+00
  0.2000E+00
  0.2000E+00
  0.2000E+00
  0.2000E+00
  0.2000E+00
  0.2000E+00
  0.2000E+00
  0.2000E+00
  0.2000E+00
  0.2000E+00
  0.2000E+00
  0.2000E+00
  0.2000E+00
  0.2000E+00
  0.2000E+00
  0.2900E+00
  0.2900E+00
  0.2900E+00
  0.2900E+00
  0.2900E+00
  0.2900E+00
  0.2900E+00
  0.2900E+00
  0.2900E+00
  0.2900E+00
  0.2900E+00
  0.2900E+00
  0.2900E+00
  0.2900E+00
  0.2900E+00
  0.2900E+00
  0.2900E+00
  0.2897E+00
  0.2890E+00
  0.2875E+00
  0.2846E+00
  0.2798E+00
  0.2728E+00
  0.2637E+00
  0.2529E+00
  0.2410E+00
  0.2292E+00
  0.2186E+00
  0.2104E+00
  0.2049E+00
  0.2020E+00
  0.2007E+00
  0.2002E+00
  0.2000E+00
  0.2000E+00
  0.2000E+00
  0.2000E+00
  0.2000E+00
  0.2000E+00
  0.2000E+00
  0.2000E+00
  0.2000E+00
  0.2000E+00
  0.2000E+00
  0.2000E+00
  0.2000E+00
  0.2000E+00
  0.2000E+00
  0.2000E+00
  0.2000E+00
  0.2000E+00
  0.2000E+00
  0.2000E+00
  0.2000E+00
  0.2000E+00
  0.2000E+00
  0.2000E+00
  0.2000E+00
  0.2000E+00
  0.2000E+00
  0.2146E+00
  0.2146E+00
  0.2146E+00
  0.2146E+00
  0.2146E+00
  0.2146E+00
  0.2146E+00
  0.2146E+00
  0.2146E+00
  0.2146E+00
  0.2146E+00
  0.2146E+00
  0.2146E+00
  0.2146E+00
  0.2146E+00
  0.2146E+00
  0.2146E+00
  0.2145E+00
  0.2143E+00
  0.2140E+00
  0.2132E+00
  0.2120E+00
  0.2103E+00
  0.2082E+00
  0.2059E+00
  0.2038E+00
  0.2022E+00
  0.2011E+00
  0.2005E+00
  0.2002E+00
  0.2001E+00
  0.2000E+00
  0.2000E+00
  0.2000E+00
  0.2000E+00
  0.2000E+00
  0.2000E+00
  0.2000E+00
  0.2000E+00
  0.2000E+00
  0.2000E+00
  0.2000E+00
  0.2000E+00
  0.2000E+00
  0.2000E+00
  0.2000E+00
  0.2000E+00
  0.2000E+00
  0.2000E+00
  0.2000E+00
  0.2000E+00
  0.2000E+00
  0.2000E+00
  0.2000E+00
  0.2000E+00
  0.2000E+00
  0.2000E+00
  0.2000E+00
  0.2000E+00
  0.2000E+00
  0.2004E+00
  0.2004E+00
  0.2004E+00
  0.2004E+00
  0.2004E+00
  0.2004E+00
  0.2004E+00
  0.2004E+00
  0.2004E+00
  0.2004E+00
  0.2004E+00
  0.2004E+00
  0.2004E+00
  0.2004E+00
  0.2004E+00
  0.2004E+00
  0.2004E+00
  0.2004E+00
  0.2004E+00
  0.2003E+00
  0.2003E+00
  0.2003E+00
  0.2002E+00
  0.2001E+00
  0.2001E+00
  0.2001E+00
  0.2000E+00
  0.2000E+00
  0.2000E+00
  0.2000E+00
  0.2000E+00
  0.2000E+00
  0.2000E+00
  0.2000E+00
  0.2000E+00
  0.2000E+00
  0.2000E+00
  0.2000E+00
  0.2000E+00
  0.2000E+00
  0.2000E+00
  0.2000E+00
  0.2000E+00
  0.2000E+00
  0.2000E+00
  0.2000E+00
  0.2000E+00
  0.2000E+00
  0.2000E+00
  0.2000E+00
  0.2000E+00
  0.2000E+00
  0.2000E+00
  0.2000E+00
  0.2000E+00
  0.2000E+00
  0.2000E+00
  0.2000E+00
  0.2000E+00
  0.2000E+00
  0.2000E+00
  0.2000E+00
  0.2000E+00
  0.2000E+00
  0.2000E+00
  0.2000E+00
  0.2000E+00
  0.2000E+00
  0.2000E+00
  0.2000E+00
  0.2000E+00
  0.2000E+00
  0.2000E+00
  0.2000E+00
  0.2000E+00
  0.2000E+00
  0.2000E+00
  0.2000E+00
  0.2000E+00
  0.2000E+00
  0.2000E+00
  0.2000E+00
  0.2000E+00
  0.2000E+00
  0.2000E+00
  0.2000E+00
  0.2000E+00
  0.2000E+00
  0.2000E+00
  0.2000E+00
  0.2000E+00
  0.2000E+00
  0.2000E+00
  0.2000E+00
  0.2000E+00
  0.2000E+00
  0.2000E+00
  0.2000E+00
  0.2000E+00
  0.2000E+00
  0.2000E+00
  0.2000E+00
  0.2000E+00
  0.2000E+00
  0.2000E+00
  0.2000E+00
  0.2000E+00
  0.2000E+00
  0.2000E+00
  0.2000E+00
  0.2000E+00
  0.2000E+00
  0.2000E+00
  0.2000E+00
  0.2000E+00
  0.2000E+00
  0.2000E+00
  0.2000E+00
  0.2000E+00
  0.2000E+00
  0.2000E+00
  0.2000E+00
  0.2000E+00
  0.2000E+00
  0.2000E+00
  0.2000E+00
  0.2000E+00
  0.2000E+00
  0.2000E+00
  0.2000E+00
  0.2000E+00
  0.2000E+00
  0.2000E+00
  0.2000E+00
  0.2000E+00
  0.2000E+00
  0.2000E+00
  0.2000E+00
  0.2000E+00
  0.2000E+00
  0.2000E+00
  0.2000E+00
  0.2000E+00
  0.2000E+00
  0.2000E+00
  0.2000E+00
  0.2000E+00
  0.2000E+00
  0.2000E+00
  0.2000E+00
  0.2000E+00
  0.2000E+00
  0.2000E+00
  0.2000E+00
  0.2000E+00
  0.2000E+00
  0.2000E+00
  0.2000E+00
  0.2000E+00
  0.2000E+00
  0.2000E+00
  0.2000E+00
  0.2000E+00
  0.2000E+00
  0.2000E+00
  0.2000E+00
  0.2000E+00
  0.2000E+00
  0.2000E+00
  0.2000E+00
  0.2000E+00
  0.2000E+00
  0.2000E+00
  0.2000E+00
  0.2000E+00
  0.2000E+00
  0.2000E+00
  0.2000E+00
  0.2000E+00
  0.2000E+00
  0.2000E+00
  0.2000E+00
  0.2000E+00
  0.2000E+00
  0.2000E+00
  0.2000E+00
  0.2000E+00
  0.2000E+00
  0.2000E+00
  0.2000E+00
  0.2000E+00
  0.2000E+00
  0.2000E+00
  0.2000E+00
  0.2000E+00
  0.2000E+00
  0.2000E+00
  0.2000E+00
  0.2000E+00
  0.2000E+00
  0.2000E+00
  0.2000E+00
  0.2000E+00
  0.2000E+00
  0.2000E+00
  0.2000E+00
  0.2000E+00
  0.2000E+00
  0.2000E+00
  0.2000E+00
  0.2000E+00
  0.2000E+00
  0.2000E+00
  0.2000E+00
  0.2000E+00
  0.2000E+00
  0.2000E+00
  0.2000E+00
  0.2000E+00
  0.2000E+00
  0.2000E+00
  0.2000E+00
  0.2000E+00
  0.2000E+00
  0.2000E+00
  0.2000E+00
  0.2000E+00
  0.2000E+00
  0.2000E+00
  0.2000E+00
  0.2000E+00
  0.2000E+00
  0.2000E+00
  0.2000E+00
  0.2000E+00
  0.2000E+00
  0.2000E+00
  0.2000E+00
  0.2000E+00
  0.2000E+00
  0.2000E+00
  0.2000E+00
  0.2000E+00
  0.2000E+00