# vtk DataFile Version 3.0
vtk output
ASCII
DATASET RECTILINEAR_GRID
DIMENSIONS          61          61 1
X_COORDINATES    61 double
  0.0000E+00
  0.1667E+00
  0.3333E+00
  0.5000E+00
  0.6667E+00
  0.8333E+00
  0.1000E+01
  0.1167E+01
  0.1333E+01
  0.1500E+01
  0.1667E+01
  0.1833E+01
  0.2000E+01
  0.2167E+01
  0.2333E+01
  0.2500E+01
  0.2667E+01
  0.2833E+01
  0.3000E+01
  0.3167E+01
  0.3333E+01
  0.3500E+01
  0.3667E+01
  0.3833E+01
  0.4000E+01
  0.4167E+01
  0.4333E+01
  0.4500E+01
  0.4667E+01
  0.4833E+01
  0.5000E+01
  0.5167E+01
  0.5333E+01
  0.5500E+01
  0.5667E+01
  0.5833E+01
  0.6000E+01
  0.6167E+01
  0.6333E+01
  0.6500E+01
  0.6667E+01
  0.6833E+01
  0.7000E+01
  0.7167E+01
  0.7333E+01
  0.7500E+01
  0.7667E+01
  0.7833E+01
  0.8000E+01
  0.8167E+01
  0.8333E+01
  0.8500E+01
  0.8667E+01
  0.8833E+01
  0.9000E+01
  0.9167E+01
  0.9333E+01
  0.9500E+01
  0.9667E+01
  0.9833E+01
  0.1000E+02
Y_COORDINATES    61 double
  0.0000E+00
  0.1667E+00
  0.3333E+00
  0.5000E+00
  0.6667E+00
  0.8333E+00
  0.1000E+01
  0.1167E+01
  0.1333E+01
  0.1500E+01
  0.1667E+01
  0.1833E+01
  0.2000E+01
  0.2167E+01
  0.2333E+01
  0.2500E+01
  0.2667E+01
  0.2833E+01
  0.3000E+01
  0.3167E+01
  0.3333E+01
  0.3500E+01
  0.3667E+01
  0.3833E+01
  0.4000E+01
  0.4167E+01
  0.4333E+01
  0.4500E+01
  0.4667E+01
  0.4833E+01
  0.5000E+01
  0.5167E+01
  0.5333E+01
  0.5500E+01
  0.5667E+01
  0.5833E+01
  0.6000E+01
  0.6167E+01
  0.6333E+01
  0.6500E+01
  0.6667E+01
  0.6833E+01
  0.7000E+01
  0.7167E+01
  0.7333E+01
  0.7500E+01
  0.7667E+01
  0.7833E+01
  0.8000E+01
  0.8167E+01
  0.8333E+01
  0.8500E+01
  0.8667E+01
  0.8833E+01
  0.9000E+01
  0.9167E+01
  0.9333E+01
  0.9500E+01
  0.9667E+01
  0.9833E+01
  0.1000E+02
Z_COORDINATES 1 double
0
CELL_DATA                 3600
FIELD FieldData 4
density 1                 3600 double
  0.1384E+01
  0.1384E+01
  0.1384E+01
  0.1384E+01
  0.1384E+01
  0.1384E+01
  0.1383E+01
  0.1382E+01
  0.1379E+01
  0.1370E+01
  0.1352E+01
  0.1323E+01
  0.1283E+01
  0.1236E+01
  0.1188E+01
  0.1139E+01
  0.1091E+01
  0.1044E+01
  0.9990E+00
  0.9557E+00
  0.9143E+00
  0.8749E+00
  0.8374E+00
  0.8019E+00
  0.7682E+00
  0.7363E+00
  0.7060E+00
  0.6774E+00
  0.6502E+00
  0.6245E+00
  0.6003E+00
  0.5774E+00
  0.5560E+00
  0.5362E+00
  0.5181E+00
  0.5017E+00
  0.4882E+00
  0.4785E+00
  0.4762E+00
  0.4781E+00
  0.4846E+00
  0.4928E+00
  0.5021E+00
  0.5123E+00
  0.5222E+00
  0.5320E+00
  0.5446E+00
  0.5560E+00
  0.5575E+00
  0.5482E+00
  0.5204E+00
  0.4921E+00
  0.4790E+00
  0.4806E+00
  0.4927E+00
  0.5087E+00
  0.5258E+00
  0.5564E+00
  0.6275E+00
  0.6389E+00
  0.1382E+01
  0.1382E+01
  0.1382E+01
  0.1382E+01
  0.1382E+01
  0.1382E+01
  0.1382E+01
  0.1381E+01
  0.1377E+01
  0.1369E+01
  0.1351E+01
  0.1321E+01
  0.1282E+01
  0.1235E+01
  0.1187E+01
  0.1138E+01
  0.1090E+01
  0.1043E+01
  0.9980E+00
  0.9547E+00
  0.9133E+00
  0.8739E+00
  0.8364E+00
  0.8009E+00
  0.7672E+00
  0.7353E+00
  0.7050E+00
  0.6764E+00
  0.6492E+00
  0.6235E+00
  0.5992E+00
  0.5764E+00
  0.5550E+00
  0.5351E+00
  0.5170E+00
  0.5005E+00
  0.4870E+00
  0.4772E+00
  0.4749E+00
  0.4765E+00
  0.4828E+00
  0.4910E+00
  0.5003E+00
  0.5107E+00
  0.5210E+00
  0.5320E+00
  0.5460E+00
  0.5586E+00
  0.5601E+00
  0.5499E+00
  0.5207E+00
  0.4915E+00
  0.4787E+00
  0.4805E+00
  0.4929E+00
  0.5089E+00
  0.5261E+00
  0.5548E+00
  0.6268E+00
  0.6434E+00
  0.1379E+01
  0.1379E+01
  0.1379E+01
  0.1379E+01
  0.1379E+01
  0.1379E+01
  0.1379E+01
  0.1378E+01
  0.1375E+01
  0.1366E+01
  0.1348E+01
  0.1319E+01
  0.1279E+01
  0.1233E+01
  0.1185E+01
  0.1136E+01
  0.1088E+01
  0.1041E+01
  0.9960E+00
  0.9527E+00
  0.9113E+00
  0.8719E+00
  0.8345E+00
  0.7989E+00
  0.7652E+00
  0.7333E+00
  0.7030E+00
  0.6743E+00
  0.6472E+00
  0.6214E+00
  0.5971E+00
  0.5743E+00
  0.5528E+00
  0.5329E+00
  0.5147E+00
  0.4982E+00
  0.4846E+00
  0.4748E+00
  0.4719E+00
  0.4733E+00
  0.4793E+00
  0.4873E+00
  0.4967E+00
  0.5075E+00
  0.5190E+00
  0.5324E+00
  0.5488E+00
  0.5635E+00
  0.5649E+00
  0.5523E+00
  0.5206E+00
  0.4903E+00
  0.4783E+00
  0.4805E+00
  0.4933E+00
  0.5093E+00
  0.5270E+00
  0.5539E+00
  0.6157E+00
  0.6331E+00
  0.1375E+01
  0.1375E+01
  0.1375E+01
  0.1375E+01
  0.1375E+01
  0.1375E+01
  0.1374E+01
  0.1373E+01
  0.1370E+01
  0.1362E+01
  0.1344E+01
  0.1315E+01
  0.1276E+01
  0.1230E+01
  0.1181E+01
  0.1133E+01
  0.1085E+01
  0.1038E+01
  0.9929E+00
  0.9497E+00
  0.9083E+00
  0.8689E+00
  0.8314E+00
  0.7959E+00
  0.7622E+00
  0.7302E+00
  0.7000E+00
  0.6712E+00
  0.6440E+00
  0.6183E+00
  0.5939E+00
  0.5710E+00
  0.5494E+00
  0.5295E+00
  0.5111E+00
  0.4946E+00
  0.4808E+00
  0.4707E+00
  0.4671E+00
  0.4684E+00
  0.4740E+00
  0.4816E+00
  0.4910E+00
  0.5025E+00
  0.5160E+00
  0.5325E+00
  0.5531E+00
  0.5701E+00
  0.5707E+00
  0.5541E+00
  0.5198E+00
  0.4887E+00
  0.4777E+00
  0.4806E+00
  0.4939E+00
  0.5101E+00
  0.5286E+00
  0.5564E+00
  0.6003E+00
  0.6113E+00
  0.1368E+01
  0.1368E+01
  0.1368E+01
  0.1368E+01
  0.1368E+01
  0.1368E+01
  0.1368E+01
  0.1367E+01
  0.1364E+01
  0.1356E+01
  0.1339E+01
  0.1310E+01
  0.1271E+01
  0.1225E+01
  0.1177E+01
  0.1128E+01
  0.1080E+01
  0.1034E+01
  0.9887E+00
  0.9454E+00
  0.9040E+00
  0.8646E+00
  0.8272E+00
  0.7916E+00
  0.7579E+00
  0.7260E+00
  0.6956E+00
  0.6669E+00
  0.6396E+00
  0.6138E+00
  0.5893E+00
  0.5663E+00
  0.5446E+00
  0.5245E+00
  0.5060E+00
  0.4894E+00
  0.4752E+00
  0.4649E+00
  0.4600E+00
  0.4610E+00
  0.4661E+00
  0.4734E+00
  0.4830E+00
  0.4956E+00
  0.5117E+00
  0.5326E+00
  0.5587E+00
  0.5766E+00
  0.5754E+00
  0.5541E+00
  0.5175E+00
  0.4862E+00
  0.4773E+00
  0.4810E+00
  0.4949E+00
  0.5113E+00
  0.5315E+00
  0.5575E+00
  0.5838E+00
  0.5735E+00
  0.1360E+01
  0.1360E+01
  0.1360E+01
  0.1360E+01
  0.1360E+01
  0.1360E+01
  0.1360E+01
  0.1359E+01
  0.1356E+01
  0.1348E+01
  0.1331E+01
  0.1303E+01
  0.1265E+01
  0.1219E+01
  0.1171E+01
  0.1122E+01
  0.1075E+01
  0.1028E+01
  0.9830E+00
  0.9397E+00
  0.8984E+00
  0.8590E+00
  0.8215E+00
  0.7860E+00
  0.7522E+00
  0.7202E+00
  0.6898E+00
  0.6609E+00
  0.6335E+00
  0.6076E+00
  0.5830E+00
  0.5598E+00
  0.5379E+00
  0.5175E+00
  0.4987E+00
  0.4818E+00
  0.4672E+00
  0.4566E+00
  0.4504E+00
  0.4508E+00
  0.4551E+00
  0.4621E+00
  0.4724E+00
  0.4869E+00
  0.5070E+00
  0.5339E+00
  0.5651E+00
  0.5814E+00
  0.5774E+00
  0.5507E+00
  0.5128E+00
  0.4827E+00
  0.4765E+00
  0.4816E+00
  0.4961E+00
  0.5131E+00
  0.5342E+00
  0.5588E+00
  0.5626E+00
  0.5236E+00
  0.1349E+01
  0.1349E+01
  0.1349E+01
  0.1349E+01
  0.1349E+01
  0.1349E+01
  0.1349E+01
  0.1348E+01
  0.1345E+01
  0.1338E+01
  0.1322E+01
  0.1294E+01
  0.1256E+01
  0.1211E+01
  0.1163E+01
  0.1115E+01
  0.1067E+01
  0.1020E+01
  0.9755E+00
  0.9322E+00
  0.8909E+00
  0.8514E+00
  0.8139E+00
  0.7783E+00
  0.7445E+00
  0.7123E+00
  0.6818E+00
  0.6528E+00
  0.6252E+00
  0.5990E+00
  0.5742E+00
  0.5507E+00
  0.5286E+00
  0.5079E+00
  0.4887E+00
  0.4714E+00
  0.4563E+00
  0.4450E+00
  0.4378E+00
  0.4375E+00
  0.4410E+00
  0.4479E+00
  0.4598E+00
  0.4781E+00
  0.5054E+00
  0.5395E+00
  0.5737E+00
  0.5833E+00
  0.5759E+00
  0.5433E+00
  0.5048E+00
  0.4779E+00
  0.4752E+00
  0.4821E+00
  0.4973E+00
  0.5151E+00
  0.5377E+00
  0.5548E+00
  0.5388E+00
  0.4614E+00
  0.1335E+01
  0.1335E+01
  0.1335E+01
  0.1335E+01
  0.1335E+01
  0.1335E+01
  0.1335E+01
  0.1334E+01
  0.1332E+01
  0.1325E+01
  0.1309E+01
  0.1283E+01
  0.1245E+01
  0.1201E+01
  0.1153E+01
  0.1105E+01
  0.1057E+01
  0.1010E+01
  0.9654E+00
  0.9222E+00
  0.8808E+00
  0.8413E+00
  0.8037E+00
  0.7679E+00
  0.7339E+00
  0.7016E+00
  0.6709E+00
  0.6417E+00
  0.6139E+00
  0.5875E+00
  0.5623E+00
  0.5385E+00
  0.5161E+00
  0.4950E+00
  0.4755E+00
  0.4578E+00
  0.4421E+00
  0.4302E+00
  0.4219E+00
  0.4214E+00
  0.4241E+00
  0.4320E+00
  0.4476E+00
  0.4743E+00
  0.5096E+00
  0.5489E+00
  0.5794E+00
  0.5822E+00
  0.5680E+00
  0.5317E+00
  0.4939E+00
  0.4726E+00
  0.4725E+00
  0.4825E+00
  0.4982E+00
  0.5175E+00
  0.5400E+00
  0.5480E+00
  0.5034E+00
  0.4050E+00
  0.1317E+01
  0.1317E+01
  0.1317E+01
  0.1317E+01
  0.1317E+01
  0.1317E+01
  0.1317E+01
  0.1316E+01
  0.1314E+01
  0.1307E+01
  0.1293E+01
  0.1267E+01
  0.1230E+01
  0.1186E+01
  0.1139E+01
  0.1091E+01
  0.1043E+01
  0.9968E+00
  0.9518E+00
  0.9086E+00
  0.8671E+00
  0.8276E+00
  0.7899E+00
  0.7540E+00
  0.7199E+00
  0.6874E+00
  0.6565E+00
  0.6270E+00
  0.5990E+00
  0.5723E+00
  0.5470E+00
  0.5229E+00
  0.5002E+00
  0.4789E+00
  0.4591E+00
  0.4411E+00
  0.4250E+00
  0.4125E+00
  0.4037E+00
  0.4031E+00
  0.4061E+00
  0.4168E+00
  0.4423E+00
  0.4791E+00
  0.5213E+00
  0.5610E+00
  0.5803E+00
  0.5777E+00
  0.5547E+00
  0.5163E+00
  0.4807E+00
  0.4673E+00
  0.4701E+00
  0.4828E+00
  0.4990E+00
  0.5205E+00
  0.5402E+00
  0.5356E+00
  0.4561E+00
  0.3509E+00
  0.1293E+01
  0.1293E+01
  0.1293E+01
  0.1293E+01
  0.1293E+01
  0.1293E+01
  0.1293E+01
  0.1293E+01
  0.1290E+01
  0.1284E+01
  0.1271E+01
  0.1246E+01
  0.1211E+01
  0.1167E+01
  0.1120E+01
  0.1072E+01
  0.1025E+01
  0.9788E+00
  0.9339E+00
  0.8907E+00
  0.8493E+00
  0.8097E+00
  0.7720E+00
  0.7360E+00
  0.7018E+00
  0.6692E+00
  0.6382E+00
  0.6087E+00
  0.5806E+00
  0.5538E+00
  0.5283E+00
  0.5042E+00
  0.4814E+00
  0.4600E+00
  0.4401E+00
  0.4220E+00
  0.4057E+00
  0.3927E+00
  0.3843E+00
  0.3844E+00
  0.3898E+00
  0.4109E+00
  0.4474E+00
  0.4919E+00
  0.5351E+00
  0.5690E+00
  0.5764E+00
  0.5688E+00
  0.5374E+00
  0.4983E+00
  0.4678E+00
  0.4627E+00
  0.4687E+00
  0.4831E+00
  0.5010E+00
  0.5235E+00
  0.5361E+00
  0.5131E+00
  0.4025E+00
  0.3035E+00
  0.1263E+01
  0.1263E+01
  0.1263E+01
  0.1263E+01
  0.1263E+01
  0.1263E+01
  0.1263E+01
  0.1263E+01
  0.1261E+01
  0.1255E+01
  0.1242E+01
  0.1219E+01
  0.1185E+01
  0.1143E+01
  0.1096E+01
  0.1049E+01
  0.1002E+01
  0.9559E+00
  0.9113E+00
  0.8683E+00
  0.8271E+00
  0.7876E+00
  0.7500E+00
  0.7141E+00
  0.6800E+00
  0.6475E+00
  0.6165E+00
  0.5871E+00
  0.5591E+00
  0.5324E+00
  0.5071E+00
  0.4831E+00
  0.4605E+00
  0.4393E+00
  0.4197E+00
  0.4015E+00
  0.3855E+00
  0.3711E+00
  0.3662E+00
  0.3680E+00
  0.3825E+00
  0.4162E+00
  0.4625E+00
  0.5092E+00
  0.5482E+00
  0.5708E+00
  0.5708E+00
  0.5542E+00
  0.5173E+00
  0.4787E+00
  0.4583E+00
  0.4589E+00
  0.4690E+00
  0.4844E+00
  0.5042E+00
  0.5251E+00
  0.5266E+00
  0.4737E+00
  0.3511E+00
  0.2653E+00
  0.1227E+01
  0.1227E+01
  0.1227E+01
  0.1227E+01
  0.1227E+01
  0.1227E+01
  0.1227E+01
  0.1226E+01
  0.1224E+01
  0.1219E+01
  0.1208E+01
  0.1186E+01
  0.1153E+01
  0.1112E+01
  0.1067E+01
  0.1020E+01
  0.9739E+00
  0.9285E+00
  0.8843E+00
  0.8417E+00
  0.8008E+00
  0.7617E+00
  0.7244E+00
  0.6889E+00
  0.6551E+00
  0.6229E+00
  0.5924E+00
  0.5633E+00
  0.5356E+00
  0.5094E+00
  0.4844E+00
  0.4609E+00
  0.4387E+00
  0.4179E+00
  0.3987E+00
  0.3807E+00
  0.3647E+00
  0.3513E+00
  0.3503E+00
  0.3598E+00
  0.3885E+00
  0.4340E+00
  0.4842E+00
  0.5259E+00
  0.5578E+00
  0.5680E+00
  0.5628E+00
  0.5351E+00
  0.4945E+00
  0.4608E+00
  0.4532E+00
  0.4578E+00
  0.4709E+00
  0.4879E+00
  0.5089E+00
  0.5222E+00
  0.5088E+00
  0.4201E+00
  0.3061E+00
  0.2370E+00
  0.1185E+01
  0.1185E+01
  0.1185E+01
  0.1185E+01
  0.1185E+01
  0.1185E+01
  0.1185E+01
  0.1184E+01
  0.1183E+01
  0.1178E+01
  0.1168E+01
  0.1148E+01
  0.1117E+01
  0.1078E+01
  0.1033E+01
  0.9877E+00
  0.9421E+00
  0.8974E+00
  0.8540E+00
  0.8121E+00
  0.7718E+00
  0.7333E+00
  0.6966E+00
  0.6617E+00
  0.6284E+00
  0.5969E+00
  0.5669E+00
  0.5384E+00
  0.5113E+00
  0.4857E+00
  0.4614E+00
  0.4384E+00
  0.4168E+00
  0.3967E+00
  0.3777E+00
  0.3602E+00
  0.3430E+00
  0.3370E+00
  0.3423E+00
  0.3657E+00
  0.4085E+00
  0.4602E+00
  0.5057E+00
  0.5402E+00
  0.5618E+00
  0.5629E+00
  0.5486E+00
  0.5114E+00
  0.4709E+00
  0.4496E+00
  0.4503E+00
  0.4598E+00
  0.4747E+00
  0.4932E+00
  0.5112E+00
  0.5137E+00
  0.4730E+00
  0.3635E+00
  0.2691E+00
  0.2183E+00
  0.1139E+01
  0.1139E+01
  0.1139E+01
  0.1139E+01
  0.1139E+01
  0.1139E+01
  0.1139E+01
  0.1139E+01
  0.1138E+01
  0.1134E+01
  0.1125E+01
  0.1106E+01
  0.1077E+01
  0.1040E+01
  0.9971E+00
  0.9525E+00
  0.9080E+00
  0.8643E+00
  0.8218E+00
  0.7808E+00
  0.7414E+00
  0.7037E+00
  0.6678E+00
  0.6337E+00
  0.6013E+00
  0.5705E+00
  0.5413E+00
  0.5135E+00
  0.4873E+00
  0.4624E+00
  0.4388E+00
  0.4165E+00
  0.3957E+00
  0.3760E+00
  0.3576E+00
  0.3393E+00
  0.3268E+00
  0.3303E+00
  0.3486E+00
  0.3869E+00
  0.4376E+00
  0.4862E+00
  0.5234E+00
  0.5514E+00
  0.5601E+00
  0.5543E+00
  0.5251E+00
  0.4835E+00
  0.4512E+00
  0.4455E+00
  0.4510E+00
  0.4643E+00
  0.4806E+00
  0.4986E+00
  0.5088E+00
  0.4960E+00
  0.4182E+00
  0.3136E+00
  0.2404E+00
  0.2078E+00
  0.1093E+01
  0.1093E+01
  0.1093E+01
  0.1093E+01
  0.1093E+01
  0.1093E+01
  0.1092E+01
  0.1092E+01
  0.1091E+01
  0.1088E+01
  0.1080E+01
  0.1063E+01
  0.1036E+01
  0.1001E+01
  0.9596E+00
  0.9165E+00
  0.8732E+00
  0.8306E+00
  0.7893E+00
  0.7493E+00
  0.7109E+00
  0.6743E+00
  0.6393E+00
  0.6061E+00
  0.5746E+00
  0.5447E+00
  0.5164E+00
  0.4895E+00
  0.4641E+00
  0.4400E+00
  0.4172E+00
  0.3958E+00
  0.3754E+00
  0.3564E+00
  0.3374E+00
  0.3217E+00
  0.3228E+00
  0.3366E+00
  0.3709E+00
  0.4194E+00
  0.4686E+00
  0.5076E+00
  0.5376E+00
  0.5544E+00
  0.5534E+00
  0.5335E+00
  0.4932E+00
  0.4561E+00
  0.4422E+00
  0.4448E+00
  0.4559E+00
  0.4705E+00
  0.4868E+00
  0.5001E+00
  0.4994E+00
  0.4573E+00
  0.3593E+00
  0.2724E+00
  0.2204E+00
  0.2027E+00
  0.1046E+01
  0.1046E+01
  0.1046E+01
  0.1046E+01
  0.1046E+01
  0.1046E+01
  0.1046E+01
  0.1046E+01
  0.1045E+01
  0.1042E+01
  0.1035E+01
  0.1020E+01
  0.9957E+00
  0.9621E+00
  0.9228E+00
  0.8812E+00
  0.8392E+00
  0.7979E+00
  0.7577E+00
  0.7189E+00
  0.6816E+00
  0.6460E+00
  0.6120E+00
  0.5798E+00
  0.5493E+00
  0.5203E+00
  0.4928E+00
  0.4669E+00
  0.4422E+00
  0.4189E+00
  0.3970E+00
  0.3760E+00
  0.3564E+00
  0.3370E+00
  0.3197E+00
  0.3191E+00
  0.3289E+00
  0.3586E+00
  0.4047E+00
  0.4552E+00
  0.4960E+00
  0.5270E+00
  0.5472E+00
  0.5499E+00
  0.5365E+00
  0.4992E+00
  0.4597E+00
  0.4399E+00
  0.4408E+00
  0.4492E+00
  0.4628E+00
  0.4777E+00
  0.4911E+00
  0.4963E+00
  0.4770E+00
  0.3994E+00
  0.3075E+00
  0.2410E+00
  0.2086E+00
  0.2008E+00
  0.1002E+01
  0.1002E+01
  0.1002E+01
  0.1002E+01
  0.1002E+01
  0.1002E+01
  0.1002E+01
  0.1002E+01
  0.1001E+01
  0.9989E+00
  0.9927E+00
  0.9795E+00
  0.9569E+00
  0.9253E+00
  0.8878E+00
  0.8477E+00
  0.8070E+00
  0.7670E+00
  0.7279E+00
  0.6902E+00
  0.6540E+00
  0.6195E+00
  0.5865E+00
  0.5553E+00
  0.5256E+00
  0.4976E+00
  0.4710E+00
  0.4458E+00
  0.4220E+00
  0.3994E+00
  0.3779E+00
  0.3577E+00
  0.3373E+00
  0.3197E+00
  0.3179E+00
  0.3251E+00
  0.3520E+00
  0.3928E+00
  0.4405E+00
  0.4837E+00
  0.5169E+00
  0.5410E+00
  0.5460E+00
  0.5362E+00
  0.5017E+00
  0.4622E+00
  0.4389E+00
  0.4379E+00
  0.4437E+00
  0.4567E+00
  0.4704E+00
  0.4833E+00
  0.4904E+00
  0.4830E+00
  0.4294E+00
  0.3410E+00
  0.2658E+00
  0.2198E+00
  0.2030E+00
  0.2002E+00
  0.9614E+00
  0.9614E+00
  0.9614E+00
  0.9614E+00
  0.9614E+00
  0.9614E+00
  0.9614E+00
  0.9612E+00
  0.9606E+00
  0.9587E+00
  0.9534E+00
  0.9417E+00
  0.9210E+00
  0.8915E+00
  0.8557E+00
  0.8170E+00
  0.7776E+00
  0.7387E+00
  0.7008E+00
  0.6642E+00
  0.6290E+00
  0.5954E+00
  0.5634E+00
  0.5330E+00
  0.5042E+00
  0.4769E+00
  0.4511E+00
  0.4266E+00
  0.4033E+00
  0.3812E+00
  0.3604E+00
  0.3392E+00
  0.3217E+00
  0.3191E+00
  0.3252E+00
  0.3463E+00
  0.3858E+00
  0.4336E+00
  0.4736E+00
  0.5042E+00
  0.5300E+00
  0.5410E+00
  0.5349E+00
  0.5041E+00
  0.4645E+00
  0.4397E+00
  0.4369E+00
  0.4405E+00
  0.4517E+00
  0.4643E+00
  0.4763E+00
  0.4844E+00
  0.4825E+00
  0.4484E+00
  0.3696E+00
  0.2910E+00
  0.2351E+00
  0.2078E+00
  0.2008E+00
  0.2000E+00
  0.9252E+00
  0.9252E+00
  0.9252E+00
  0.9252E+00
  0.9252E+00
  0.9252E+00
  0.9251E+00
  0.9250E+00
  0.9246E+00
  0.9230E+00
  0.9184E+00
  0.9081E+00
  0.8893E+00
  0.8615E+00
  0.8274E+00
  0.7900E+00
  0.7518E+00
  0.7140E+00
  0.6770E+00
  0.6413E+00
  0.6071E+00
  0.5743E+00
  0.5431E+00
  0.5135E+00
  0.4854E+00
  0.4587E+00
  0.4334E+00
  0.4095E+00
  0.3869E+00
  0.3651E+00
  0.3430E+00
  0.3270E+00
  0.3226E+00
  0.3288E+00
  0.3520E+00
  0.3859E+00
  0.4269E+00
  0.4693E+00
  0.5019E+00
  0.5255E+00
  0.5353E+00
  0.5321E+00
  0.5063E+00
  0.4673E+00
  0.4425E+00
  0.4381E+00
  0.4404E+00
  0.4493E+00
  0.4595E+00
  0.4697E+00
  0.4783E+00
  0.4797E+00
  0.4588E+00
  0.3919E+00
  0.3141E+00
  0.2522E+00
  0.2156E+00
  0.2025E+00
  0.2002E+00
  0.2000E+00
  0.8965E+00
  0.8965E+00
  0.8965E+00
  0.8965E+00
  0.8965E+00
  0.8965E+00
  0.8965E+00
  0.8964E+00
  0.8960E+00
  0.8947E+00
  0.8908E+00
  0.8817E+00
  0.8647E+00
  0.8389E+00
  0.8063E+00
  0.7700E+00
  0.7327E+00
  0.6957E+00
  0.6595E+00
  0.6245E+00
  0.5907E+00
  0.5585E+00
  0.5277E+00
  0.4985E+00
  0.4708E+00
  0.4445E+00
  0.4195E+00
  0.3957E+00
  0.3722E+00
  0.3516E+00
  0.3372E+00
  0.3302E+00
  0.3366E+00
  0.3587E+00
  0.3928E+00
  0.4335E+00
  0.4691E+00
  0.4974E+00
  0.5237E+00
  0.5375E+00
  0.5337E+00
  0.5096E+00
  0.4716E+00
  0.4461E+00
  0.4412E+00
  0.4430E+00
  0.4496E+00
  0.4570E+00
  0.4646E+00
  0.4722E+00
  0.4756E+00
  0.4621E+00
  0.4079E+00
  0.3337E+00
  0.2689E+00
  0.2255E+00
  0.2056E+00
  0.2006E+00
  0.2000E+00
  0.2000E+00
  0.8794E+00
  0.8794E+00
  0.8794E+00
  0.8794E+00
  0.8794E+00
  0.8794E+00
  0.8794E+00
  0.8793E+00
  0.8790E+00
  0.8778E+00
  0.8743E+00
  0.8656E+00
  0.8495E+00
  0.8253E+00
  0.7939E+00
  0.7585E+00
  0.7217E+00
  0.6849E+00
  0.6489E+00
  0.6139E+00
  0.5802E+00
  0.5479E+00
  0.5171E+00
  0.4879E+00
  0.4601E+00
  0.4340E+00
  0.4094E+00
  0.3866E+00
  0.3670E+00
  0.3504E+00
  0.3422E+00
  0.3485E+00
  0.3710E+00
  0.4048E+00
  0.4408E+00
  0.4735E+00
  0.5014E+00
  0.5237E+00
  0.5353E+00
  0.5347E+00
  0.5152E+00
  0.4763E+00
  0.4495E+00
  0.4443E+00
  0.4459E+00
  0.4517E+00
  0.4573E+00
  0.4623E+00
  0.4680E+00
  0.4712E+00
  0.4615E+00
  0.4169E+00
  0.3486E+00
  0.2838E+00
  0.2360E+00
  0.2100E+00
  0.2015E+00
  0.2001E+00
  0.2000E+00
  0.2000E+00
  0.8733E+00
  0.8733E+00
  0.8733E+00
  0.8733E+00
  0.8733E+00
  0.8733E+00
  0.8733E+00
  0.8732E+00
  0.8730E+00
  0.8721E+00
  0.8694E+00
  0.8626E+00
  0.8481E+00
  0.8244E+00
  0.7935E+00
  0.7583E+00
  0.7215E+00
  0.6846E+00
  0.6484E+00
  0.6132E+00
  0.5792E+00
  0.5467E+00
  0.5157E+00
  0.4863E+00
  0.4586E+00
  0.4326E+00
  0.4083E+00
  0.3864E+00
  0.3686E+00
  0.3598E+00
  0.3657E+00
  0.3870E+00
  0.4192E+00
  0.4551E+00
  0.4839E+00
  0.5044E+00
  0.5246E+00
  0.5365E+00
  0.5344E+00
  0.5152E+00
  0.4787E+00
  0.4519E+00
  0.4466E+00
  0.4480E+00
  0.4531E+00
  0.4579E+00
  0.4615E+00
  0.4658E+00
  0.4685E+00
  0.4614E+00
  0.4223E+00
  0.3586E+00
  0.2956E+00
  0.2460E+00
  0.2154E+00
  0.2031E+00
  0.2003E+00
  0.2000E+00
  0.2000E+00
  0.2000E+00
  0.8731E+00
  0.8731E+00
  0.8731E+00
  0.8731E+00
  0.8731E+00
  0.8731E+00
  0.8730E+00
  0.8730E+00
  0.8728E+00
  0.8720E+00
  0.8694E+00
  0.8629E+00
  0.8495E+00
  0.8271E+00
  0.7970E+00
  0.7621E+00
  0.7252E+00
  0.6881E+00
  0.6516E+00
  0.6159E+00
  0.5814E+00
  0.5484E+00
  0.5169E+00
  0.4873E+00
  0.4595E+00
  0.4338E+00
  0.4105E+00
  0.3914E+00
  0.3828E+00
  0.3887E+00
  0.4086E+00
  0.4375E+00
  0.4685E+00
  0.4957E+00
  0.5170E+00
  0.5304E+00
  0.5355E+00
  0.5332E+00
  0.5150E+00
  0.4788E+00
  0.4531E+00
  0.4481E+00
  0.4491E+00
  0.4535E+00
  0.4575E+00
  0.4606E+00
  0.4643E+00
  0.4669E+00
  0.4617E+00
  0.4270E+00
  0.3662E+00
  0.3043E+00
  0.2544E+00
  0.2210E+00
  0.2051E+00
  0.2007E+00
  0.2001E+00
  0.2000E+00
  0.2000E+00
  0.2000E+00
  0.8742E+00
  0.8742E+00
  0.8742E+00
  0.8742E+00
  0.8742E+00
  0.8742E+00
  0.8742E+00
  0.8741E+00
  0.8740E+00
  0.8733E+00
  0.8711E+00
  0.8653E+00
  0.8529E+00
  0.8319E+00
  0.8027E+00
  0.7683E+00
  0.7315E+00
  0.6940E+00
  0.6569E+00
  0.6208E+00
  0.5860E+00
  0.5527E+00
  0.5212E+00
  0.4916E+00
  0.4643E+00
  0.4399E+00
  0.4203E+00
  0.4118E+00
  0.4167E+00
  0.4342E+00
  0.4601E+00
  0.4862E+00
  0.5078E+00
  0.5266E+00
  0.5414E+00
  0.5412E+00
  0.5327E+00
  0.5097E+00
  0.4765E+00
  0.4523E+00
  0.4480E+00
  0.4497E+00
  0.4538E+00
  0.4571E+00
  0.4596E+00
  0.4629E+00
  0.4655E+00
  0.4612E+00
  0.4295E+00
  0.3716E+00
  0.3110E+00
  0.2609E+00
  0.2260E+00
  0.2075E+00
  0.2013E+00
  0.2001E+00
  0.2000E+00
  0.2000E+00
  0.2000E+00
  0.2000E+00
  0.8782E+00
  0.8782E+00
  0.8782E+00
  0.8782E+00
  0.8782E+00
  0.8782E+00
  0.8782E+00
  0.8782E+00
  0.8780E+00
  0.8774E+00
  0.8756E+00
  0.8704E+00
  0.8591E+00
  0.8393E+00
  0.8109E+00
  0.7766E+00
  0.7394E+00
  0.7014E+00
  0.6637E+00
  0.6272E+00
  0.5922E+00
  0.5591E+00
  0.5280E+00
  0.4996E+00
  0.4745E+00
  0.4547E+00
  0.4449E+00
  0.4486E+00
  0.4630E+00
  0.4842E+00
  0.5057E+00
  0.5235E+00
  0.5380E+00
  0.5471E+00
  0.5457E+00
  0.5354E+00
  0.5062E+00
  0.4718E+00
  0.4499E+00
  0.4467E+00
  0.4493E+00
  0.4539E+00
  0.4571E+00
  0.4591E+00
  0.4620E+00
  0.4644E+00
  0.4604E+00
  0.4301E+00
  0.3741E+00
  0.3155E+00
  0.2658E+00
  0.2301E+00
  0.2098E+00
  0.2020E+00
  0.2003E+00
  0.2000E+00
  0.2000E+00
  0.2000E+00
  0.2000E+00
  0.2000E+00
  0.8846E+00
  0.8846E+00
  0.8846E+00
  0.8846E+00
  0.8846E+00
  0.8846E+00
  0.8846E+00
  0.8846E+00
  0.8845E+00
  0.8840E+00
  0.8824E+00
  0.8778E+00
  0.8674E+00
  0.8484E+00
  0.8204E+00
  0.7860E+00
  0.7483E+00
  0.7098E+00
  0.6718E+00
  0.6350E+00
  0.6002E+00
  0.5677E+00
  0.5380E+00
  0.5120E+00
  0.4915E+00
  0.4799E+00
  0.4820E+00
  0.4929E+00
  0.5094E+00
  0.5259E+00
  0.5402E+00
  0.5513E+00
  0.5546E+00
  0.5496E+00
  0.5362E+00
  0.5040E+00
  0.4675E+00
  0.4463E+00
  0.4445E+00
  0.4480E+00
  0.4538E+00
  0.4573E+00
  0.4593E+00
  0.4618E+00
  0.4638E+00
  0.4598E+00
  0.4303E+00
  0.3753E+00
  0.3180E+00
  0.2692E+00
  0.2333E+00
  0.2118E+00
  0.2028E+00
  0.2004E+00
  0.2000E+00
  0.2000E+00
  0.2000E+00
  0.2000E+00
  0.2000E+00
  0.2000E+00
  0.8928E+00
  0.8928E+00
  0.8928E+00
  0.8928E+00
  0.8928E+00
  0.8928E+00
  0.8928E+00
  0.8928E+00
  0.8927E+00
  0.8923E+00
  0.8909E+00
  0.8867E+00
  0.8770E+00
  0.8585E+00
  0.8309E+00
  0.7962E+00
  0.7580E+00
  0.7190E+00
  0.6806E+00
  0.6440E+00
  0.6100E+00
  0.5789E+00
  0.5519E+00
  0.5303E+00
  0.5167E+00
  0.5160E+00
  0.5233E+00
  0.5358E+00
  0.5482E+00
  0.5577E+00
  0.5620E+00
  0.5602E+00
  0.5536E+00
  0.5360E+00
  0.5017E+00
  0.4645E+00
  0.4424E+00
  0.4413E+00
  0.4457E+00
  0.4531E+00
  0.4576E+00
  0.4598E+00
  0.4621E+00
  0.4638E+00
  0.4594E+00
  0.4301E+00
  0.3755E+00
  0.3191E+00
  0.2714E+00
  0.2357E+00
  0.2135E+00
  0.2035E+00
  0.2006E+00
  0.2001E+00
  0.2000E+00
  0.2000E+00
  0.2000E+00
  0.2000E+00
  0.2000E+00
  0.2000E+00
  0.8999E+00
  0.8999E+00
  0.8999E+00
  0.8999E+00
  0.8999E+00
  0.8999E+00
  0.8999E+00
  0.8999E+00
  0.8998E+00
  0.8995E+00
  0.8982E+00
  0.8943E+00
  0.8851E+00
  0.8674E+00
  0.8401E+00
  0.8053E+00
  0.7666E+00
  0.7272E+00
  0.6892E+00
  0.6538E+00
  0.6216E+00
  0.5935E+00
  0.5711E+00
  0.5558E+00
  0.5502E+00
  0.5544E+00
  0.5629E+00
  0.5695E+00
  0.5708E+00
  0.5681E+00
  0.5632E+00
  0.5544E+00
  0.5333E+00
  0.4989E+00
  0.4620E+00
  0.4395E+00
  0.4381E+00
  0.4427E+00
  0.4516E+00
  0.4577E+00
  0.4605E+00
  0.4629E+00
  0.4645E+00
  0.4598E+00
  0.4300E+00
  0.3754E+00
  0.3191E+00
  0.2721E+00
  0.2372E+00
  0.2147E+00
  0.2041E+00
  0.2007E+00
  0.2001E+00
  0.2000E+00
  0.2000E+00
  0.2000E+00
  0.2000E+00
  0.2000E+00
  0.2000E+00
  0.2000E+00
  0.9024E+00
  0.9024E+00
  0.9024E+00
  0.9024E+00
  0.9024E+00
  0.9024E+00
  0.9024E+00
  0.9024E+00
  0.9023E+00
  0.9019E+00
  0.9007E+00
  0.8971E+00
  0.8882E+00
  0.8710E+00
  0.8443E+00
  0.8100E+00
  0.7723E+00
  0.7342E+00
  0.6981E+00
  0.6651E+00
  0.6365E+00
  0.6135E+00
  0.5968E+00
  0.5866E+00
  0.5845E+00
  0.5842E+00
  0.5821E+00
  0.5766E+00
  0.5709E+00
  0.5629E+00
  0.5486E+00
  0.5251E+00
  0.4933E+00
  0.4599E+00
  0.4388E+00
  0.4368E+00
  0.4403E+00
  0.4496E+00
  0.4571E+00
  0.4613E+00
  0.4642E+00
  0.4655E+00
  0.4604E+00
  0.4302E+00
  0.3755E+00
  0.3191E+00
  0.2721E+00
  0.2377E+00
  0.2156E+00
  0.2046E+00
  0.2009E+00
  0.2001E+00
  0.2000E+00
  0.2000E+00
  0.2000E+00
  0.2000E+00
  0.2000E+00
  0.2000E+00
  0.2000E+00
  0.2000E+00
  0.9013E+00
  0.9013E+00
  0.9013E+00
  0.9013E+00
  0.9013E+00
  0.9013E+00
  0.9013E+00
  0.9013E+00
  0.9012E+00
  0.9008E+00
  0.8996E+00
  0.8959E+00
  0.8871E+00
  0.8700E+00
  0.8434E+00
  0.8097E+00
  0.7728E+00
  0.7368E+00
  0.7035E+00
  0.6743E+00
  0.6499E+00
  0.6304E+00
  0.6151E+00
  0.6033E+00
  0.5942E+00
  0.5870E+00
  0.5793E+00
  0.5692E+00
  0.5543E+00
  0.5351E+00
  0.5115E+00
  0.4834E+00
  0.4556E+00
  0.4402E+00
  0.4377E+00
  0.4405E+00
  0.4493E+00
  0.4571E+00
  0.4623E+00
  0.4658E+00
  0.4669E+00
  0.4611E+00
  0.4300E+00
  0.3753E+00
  0.3191E+00
  0.2721E+00
  0.2377E+00
  0.2158E+00
  0.2049E+00
  0.2010E+00
  0.2001E+00
  0.2000E+00
  0.2000E+00
  0.2000E+00
  0.2000E+00
  0.2000E+00
  0.2000E+00
  0.2000E+00
  0.2000E+00
  0.2000E+00
  0.8894E+00
  0.8894E+00
  0.8894E+00
  0.8894E+00
  0.8894E+00
  0.8894E+00
  0.8894E+00
  0.8894E+00
  0.8893E+00
  0.8889E+00
  0.8875E+00
  0.8836E+00
  0.8746E+00
  0.8577E+00
  0.8320E+00
  0.8001E+00
  0.7658E+00
  0.7321E+00
  0.7008E+00
  0.6731E+00
  0.6497E+00
  0.6301E+00
  0.6136E+00
  0.5993E+00
  0.5868E+00
  0.5728E+00
  0.5565E+00
  0.5380E+00
  0.5174E+00
  0.4946E+00
  0.4709E+00
  0.4511E+00
  0.4422E+00
  0.4406E+00
  0.4441E+00
  0.4518E+00
  0.4596E+00
  0.4648E+00
  0.4681E+00
  0.4685E+00
  0.4618E+00
  0.4294E+00
  0.3741E+00
  0.3180E+00
  0.2714E+00
  0.2372E+00
  0.2156E+00
  0.2049E+00
  0.2011E+00
  0.2002E+00
  0.2000E+00
  0.2000E+00
  0.2000E+00
  0.2000E+00
  0.2000E+00
  0.2000E+00
  0.2000E+00
  0.2000E+00
  0.2000E+00
  0.2000E+00
  0.8416E+00
  0.8416E+00
  0.8416E+00
  0.8416E+00
  0.8416E+00
  0.8416E+00
  0.8416E+00
  0.8415E+00
  0.8414E+00
  0.8409E+00
  0.8394E+00
  0.8352E+00
  0.8261E+00
  0.8100E+00
  0.7868E+00
  0.7590E+00
  0.7300E+00
  0.7022E+00
  0.6762E+00
  0.6524E+00
  0.6303E+00
  0.6097E+00
  0.5903E+00
  0.5722E+00
  0.5546E+00
  0.5369E+00
  0.5184E+00
  0.4989E+00
  0.4789E+00
  0.4607E+00
  0.4496E+00
  0.4457E+00
  0.4449E+00
  0.4491E+00
  0.4567E+00
  0.4644E+00
  0.4698E+00
  0.4723E+00
  0.4711E+00
  0.4617E+00
  0.4271E+00
  0.3716E+00
  0.3155E+00
  0.2692E+00
  0.2357E+00
  0.2147E+00
  0.2046E+00
  0.2010E+00
  0.2002E+00
  0.2000E+00
  0.2000E+00
  0.2000E+00
  0.2000E+00
  0.2000E+00
  0.2000E+00
  0.2000E+00
  0.2000E+00
  0.2000E+00
  0.2000E+00
  0.2000E+00
  0.7713E+00
  0.7713E+00
  0.7713E+00
  0.7713E+00
  0.7713E+00
  0.7713E+00
  0.7713E+00
  0.7712E+00
  0.7711E+00
  0.7705E+00
  0.7687E+00
  0.7643E+00
  0.7554E+00
  0.7405E+00
  0.7206E+00
  0.6979E+00
  0.6744E+00
  0.6515E+00
  0.6298E+00
  0.6093E+00
  0.5892E+00
  0.5699E+00
  0.5512E+00
  0.5334E+00
  0.5162E+00
  0.4994E+00
  0.4830E+00
  0.4686E+00
  0.4586E+00
  0.4533E+00
  0.4503E+00
  0.4510E+00
  0.4557E+00
  0.4628E+00
  0.4704E+00
  0.4763E+00
  0.4785E+00
  0.4753E+00
  0.4618E+00
  0.4223E+00
  0.3663E+00
  0.3111E+00
  0.2658E+00
  0.2333E+00
  0.2135E+00
  0.2041E+00
  0.2009E+00
  0.2001E+00
  0.2000E+00
  0.2000E+00
  0.2000E+00
  0.2000E+00
  0.2000E+00
  0.2000E+00
  0.2000E+00
  0.2000E+00
  0.2000E+00
  0.2000E+00
  0.2000E+00
  0.2000E+00
  0.7046E+00
  0.7046E+00
  0.7046E+00
  0.7046E+00
  0.7046E+00
  0.7046E+00
  0.7046E+00
  0.7046E+00
  0.7044E+00
  0.7037E+00
  0.7018E+00
  0.6973E+00
  0.6887E+00
  0.6755E+00
  0.6589E+00
  0.6407E+00
  0.6222E+00
  0.6038E+00
  0.5858E+00
  0.5677E+00
  0.5502E+00
  0.5334E+00
  0.5173E+00
  0.5025E+00
  0.4893E+00
  0.4784E+00
  0.4699E+00
  0.4637E+00
  0.4591E+00
  0.4578E+00
  0.4599E+00
  0.4642E+00
  0.4705E+00
  0.4776E+00
  0.4831E+00
  0.4845E+00
  0.4798E+00
  0.4621E+00
  0.4168E+00
  0.3587E+00
  0.3044E+00
  0.2609E+00
  0.2301E+00
  0.2118E+00
  0.2035E+00
  0.2007E+00
  0.2001E+00
  0.2000E+00
  0.2000E+00
  0.2000E+00
  0.2000E+00
  0.2000E+00
  0.2000E+00
  0.2000E+00
  0.2000E+00
  0.2000E+00
  0.2000E+00
  0.2000E+00
  0.2000E+00
  0.2000E+00
  0.6603E+00
  0.6603E+00
  0.6603E+00
  0.6603E+00
  0.6603E+00
  0.6603E+00
  0.6603E+00
  0.6602E+00
  0.6600E+00
  0.6593E+00
  0.6572E+00
  0.6527E+00
  0.6445E+00
  0.6326E+00
  0.6184E+00
  0.6035E+00
  0.5885E+00
  0.5734E+00
  0.5584E+00
  0.5437E+00
  0.5300E+00
  0.5173E+00
  0.5058E+00
  0.4955E+00
  0.4864E+00
  0.4784E+00
  0.4727E+00
  0.4695E+00
  0.4695E+00
  0.4708E+00
  0.4747E+00
  0.4804E+00
  0.4870E+00
  0.4912E+00
  0.4902E+00
  0.4829E+00
  0.4587E+00
  0.4077E+00
  0.3486E+00
  0.2956E+00
  0.2544E+00
  0.2260E+00
  0.2098E+00
  0.2028E+00
  0.2006E+00
  0.2001E+00
  0.2000E+00
  0.2000E+00
  0.2000E+00
  0.2000E+00
  0.2000E+00
  0.2000E+00
  0.2000E+00
  0.2000E+00
  0.2000E+00
  0.2000E+00
  0.2000E+00
  0.2000E+00
  0.2000E+00
  0.2000E+00
  0.6470E+00
  0.6470E+00
  0.6470E+00
  0.6470E+00
  0.6470E+00
  0.6470E+00
  0.6470E+00
  0.6469E+00
  0.6467E+00
  0.6459E+00
  0.6438E+00
  0.6394E+00
  0.6318E+00
  0.6213E+00
  0.6090E+00
  0.5960E+00
  0.5827E+00
  0.5693E+00
  0.5557E+00
  0.5422E+00
  0.5299E+00
  0.5186E+00
  0.5085E+00
  0.4999E+00
  0.4930E+00
  0.4883E+00
  0.4853E+00
  0.4841E+00
  0.4848E+00
  0.4880E+00
  0.4934E+00
  0.4983E+00
  0.5002E+00
  0.4959E+00
  0.4830E+00
  0.4482E+00
  0.3920E+00
  0.3337E+00
  0.2838E+00
  0.2460E+00
  0.2210E+00
  0.2075E+00
  0.2020E+00
  0.2004E+00
  0.2001E+00
  0.2000E+00
  0.2000E+00
  0.2000E+00
  0.2000E+00
  0.2000E+00
  0.2000E+00
  0.2000E+00
  0.2000E+00
  0.2000E+00
  0.2000E+00
  0.2000E+00
  0.2000E+00
  0.2000E+00
  0.2000E+00
  0.2000E+00
  0.6464E+00
  0.6464E+00
  0.6464E+00
  0.6464E+00