# vtk DataFile Version 3.0
vtk output
ASCII
DATASET RECTILINEAR_GRID
DIMENSIONS          61          61 1
X_COORDINATES    61 double
  0.0000E+00
  0.1667E+00
  0.3333E+00
  0.5000E+00
  0.6667E+00
  0.8333E+00
  0.1000E+01
  0.1167E+01
  0.1333E+01
  0.1500E+01
  0.1667E+01
  0.1833E+01
  0.2000E+01
  0.2167E+01
  0.2333E+01
  0.2500E+01
  0.2667E+01
  0.2833E+01
  0.3000E+01
  0.3167E+01
  0.3333E+01
  0.3500E+01
  0.3667E+01
  0.3833E+01
  0.4000E+01
  0.4167E+01
  0.4333E+01
  0.4500E+01
  0.4667E+01
  0.4833E+01
  0.5000E+01
  0.5167E+01
  0.5333E+01
  0.5500E+01
  0.5667E+01
  0.5833E+01
  0.6000E+01
  0.6167E+01
  0.6333E+01
  0.6500E+01
  0.6667E+01
  0.6833E+01
  0.7000E+01
  0.7167E+01
  0.7333E+01
  0.7500E+01
  0.7667E+01
  0.7833E+01
  0.8000E+01
  0.8167E+01
  0.8333E+01
  0.8500E+01
  0.8667E+01
  0.8833E+01
  0.9000E+01
  0.9167E+01
  0.9333E+01
  0.9500E+01
  0.9667E+01
  0.9833E+01
  0.1000E+02
Y_COORDINATES    61 double
  0.0000E+00
  0.1667E+00
  0.3333E+00
  0.5000E+00
  0.6667E+00
  0.8333E+00
  0.1000E+01
  0.1167E+01
  0.1333E+01
  0.1500E+01
  0.1667E+01
  0.1833E+01
  0.2000E+01
  0.2167E+01
  0.2333E+01
  0.2500E+01
  0.2667E+01
  0.2833E+01
  0.3000E+01
  0.3167E+01
  0.3333E+01
  0.3500E+01
  0.3667E+01
  0.3833E+01
  0.4000E+01
  0.4167E+01
  0.4333E+01
  0.4500E+01
  0.4667E+01
  0.4833E+01
  0.5000E+01
  0.5167E+01
  0.5333E+01
  0.5500E+01
  0.5667E+01
  0.5833E+01
  0.6000E+01
  0.6167E+01
  0.6333E+01
  0.6500E+01
  0.6667E+01
  0.6833E+01
  0.7000E+01
  0.7167E+01
  0.7333E+01
  0.7500E+01
  0.7667E+01
  0.7833E+01
  0.8000E+01
  0.8167E+01
  0.8333E+01
  0.8500E+01
  0.8667E+01
  0.8833E+01
  0.9000E+01
  0.9167E+01
  0.9333E+01
  0.9500E+01
  0.9667E+01
  0.9833E+01
  0.1000E+02
Z_COORDINATES 1 double
0
CELL_DATA                 3600
FIELD FieldData 4
density 1                 3600 double
  0.1739E+01
  0.1739E+01
  0.1739E+01
  0.1739E+01
  0.1739E+01
  0.1739E+01
  0.1739E+01
  0.1739E+01
  0.1739E+01
  0.1738E+01
  0.1736E+01
  0.1729E+01
  0.1711E+01
  0.1677E+01
  0.1626E+01
  0.1564E+01
  0.1496E+01
  0.1427E+01
  0.1359E+01
  0.1294E+01
  0.1231E+01
  0.1171E+01
  0.1114E+01
  0.1061E+01
  0.1011E+01
  0.9636E+00
  0.9193E+00
  0.8775E+00
  0.8383E+00
  0.8015E+00
  0.7669E+00
  0.7347E+00
  0.7051E+00
  0.6782E+00
  0.6542E+00
  0.6340E+00
  0.6182E+00
  0.6134E+00
  0.6155E+00
  0.6248E+00
  0.6389E+00
  0.6552E+00
  0.6696E+00
  0.6796E+00
  0.6811E+00
  0.6753E+00
  0.6436E+00
  0.5960E+00
  0.5532E+00
  0.5323E+00
  0.5326E+00
  0.5417E+00
  0.5563E+00
  0.5747E+00
  0.5814E+00
  0.5280E+00
  0.3639E+00
  0.2467E+00
  0.2043E+00
  0.2000E+00
  0.1734E+01
  0.1734E+01
  0.1734E+01
  0.1734E+01
  0.1734E+01
  0.1734E+01
  0.1734E+01
  0.1734E+01
  0.1734E+01
  0.1733E+01
  0.1731E+01
  0.1724E+01
  0.1706E+01
  0.1673E+01
  0.1622E+01
  0.1560E+01
  0.1492E+01
  0.1423E+01
  0.1356E+01
  0.1290E+01
  0.1227E+01
  0.1167E+01
  0.1111E+01
  0.1057E+01
  0.1007E+01
  0.9599E+00
  0.9155E+00
  0.8737E+00
  0.8344E+00
  0.7974E+00
  0.7628E+00
  0.7304E+00
  0.7006E+00
  0.6735E+00
  0.6493E+00
  0.6288E+00
  0.6130E+00
  0.6069E+00
  0.6087E+00
  0.6174E+00
  0.6309E+00
  0.6464E+00
  0.6601E+00
  0.6707E+00
  0.6738E+00
  0.6689E+00
  0.6397E+00
  0.5941E+00
  0.5522E+00
  0.5314E+00
  0.5317E+00
  0.5407E+00
  0.5554E+00
  0.5740E+00
  0.5785E+00
  0.5210E+00
  0.3574E+00
  0.2442E+00
  0.2039E+00
  0.2000E+00
  0.1724E+01
  0.1724E+01
  0.1724E+01
  0.1724E+01
  0.1724E+01
  0.1724E+01
  0.1724E+01
  0.1724E+01
  0.1724E+01
  0.1723E+01
  0.1721E+01
  0.1714E+01
  0.1697E+01
  0.1663E+01
  0.1614E+01
  0.1552E+01
  0.1484E+01
  0.1415E+01
  0.1348E+01
  0.1282E+01
  0.1220E+01
  0.1160E+01
  0.1103E+01
  0.1050E+01
  0.9994E+00
  0.9520E+00
  0.9075E+00
  0.8655E+00
  0.8260E+00
  0.7888E+00
  0.7539E+00
  0.7212E+00
  0.6911E+00
  0.6635E+00
  0.6389E+00
  0.6178E+00
  0.6018E+00
  0.5935E+00
  0.5946E+00
  0.6024E+00
  0.6146E+00
  0.6287E+00
  0.6419E+00
  0.6536E+00
  0.6596E+00
  0.6565E+00
  0.6320E+00
  0.5890E+00
  0.5485E+00
  0.5286E+00
  0.5293E+00
  0.5389E+00
  0.5539E+00
  0.5725E+00
  0.5749E+00
  0.5093E+00
  0.3465E+00
  0.2396E+00
  0.2032E+00
  0.2000E+00
  0.1707E+01
  0.1707E+01
  0.1707E+01
  0.1707E+01
  0.1707E+01
  0.1707E+01
  0.1707E+01
  0.1707E+01
  0.1707E+01
  0.1707E+01
  0.1705E+01
  0.1698E+01
  0.1681E+01
  0.1649E+01
  0.1600E+01
  0.1538E+01
  0.1471E+01
  0.1402E+01
  0.1335E+01
  0.1270E+01
  0.1207E+01
  0.1147E+01
  0.1090E+01
  0.1037E+01
  0.9865E+00
  0.9389E+00
  0.8941E+00
  0.8519E+00
  0.8121E+00
  0.7745E+00
  0.7391E+00
  0.7060E+00
  0.6753E+00
  0.6472E+00
  0.6219E+00
  0.6001E+00
  0.5835E+00
  0.5733E+00
  0.5734E+00
  0.5796E+00
  0.5904E+00
  0.6033E+00
  0.6165E+00
  0.6302E+00
  0.6403E+00
  0.6394E+00
  0.6200E+00
  0.5797E+00
  0.5407E+00
  0.5234E+00
  0.5250E+00
  0.5357E+00
  0.5517E+00
  0.5698E+00
  0.5695E+00
  0.4911E+00
  0.3309E+00
  0.2331E+00
  0.2023E+00
  0.2000E+00
  0.1683E+01
  0.1683E+01
  0.1683E+01
  0.1683E+01
  0.1683E+01
  0.1683E+01
  0.1683E+01
  0.1683E+01
  0.1683E+01
  0.1682E+01
  0.1680E+01
  0.1674E+01
  0.1658E+01
  0.1626E+01
  0.1578E+01
  0.1518E+01
  0.1451E+01
  0.1383E+01
  0.1316E+01
  0.1250E+01
  0.1188E+01
  0.1128E+01
  0.1071E+01
  0.1017E+01
  0.9668E+00
  0.9190E+00
  0.8739E+00
  0.8314E+00
  0.7912E+00
  0.7532E+00
  0.7174E+00
  0.6839E+00
  0.6527E+00
  0.6241E+00
  0.5983E+00
  0.5760E+00
  0.5586E+00
  0.5469E+00
  0.5461E+00
  0.5505E+00
  0.5604E+00
  0.5730E+00
  0.5872E+00
  0.6044E+00
  0.6201E+00
  0.6210E+00
  0.6041E+00
  0.5658E+00
  0.5292E+00
  0.5160E+00
  0.5188E+00
  0.5311E+00
  0.5484E+00
  0.5663E+00
  0.5615E+00
  0.4650E+00
  0.3116E+00
  0.2257E+00
  0.2015E+00
  0.2000E+00
  0.1648E+01
  0.1648E+01
  0.1648E+01
  0.1648E+01
  0.1648E+01
  0.1648E+01
  0.1648E+01
  0.1648E+01
  0.1648E+01
  0.1647E+01
  0.1645E+01
  0.1639E+01
  0.1624E+01
  0.1594E+01
  0.1548E+01
  0.1488E+01
  0.1422E+01
  0.1355E+01
  0.1288E+01
  0.1223E+01
  0.1160E+01
  0.1101E+01
  0.1044E+01
  0.9902E+00
  0.9395E+00
  0.8916E+00
  0.8464E+00
  0.8037E+00
  0.7633E+00
  0.7252E+00
  0.6893E+00
  0.6556E+00
  0.6243E+00
  0.5956E+00
  0.5697E+00
  0.5471E+00
  0.5293E+00
  0.5165E+00
  0.5151E+00
  0.5184E+00
  0.5280E+00
  0.5414E+00
  0.5585E+00
  0.5817E+00
  0.6025E+00
  0.6037E+00
  0.5863E+00
  0.5487E+00
  0.5150E+00
  0.5067E+00
  0.5113E+00
  0.5255E+00
  0.5445E+00
  0.5618E+00
  0.5481E+00
  0.4324E+00
  0.2910E+00
  0.2184E+00
  0.2009E+00
  0.2000E+00
  0.1601E+01
  0.1601E+01
  0.1601E+01
  0.1601E+01
  0.1601E+01
  0.1601E+01
  0.1601E+01
  0.1601E+01
  0.1601E+01
  0.1600E+01
  0.1599E+01
  0.1593E+01
  0.1579E+01
  0.1551E+01
  0.1506E+01
  0.1448E+01
  0.1383E+01
  0.1317E+01
  0.1251E+01
  0.1186E+01
  0.1124E+01
  0.1065E+01
  0.1009E+01
  0.9553E+00
  0.9049E+00
  0.8573E+00
  0.8124E+00
  0.7699E+00
  0.7299E+00
  0.6921E+00
  0.6565E+00
  0.6231E+00
  0.5922E+00
  0.5638E+00
  0.5382E+00
  0.5159E+00
  0.4980E+00
  0.4848E+00
  0.4832E+00
  0.4862E+00
  0.4962E+00
  0.5122E+00
  0.5351E+00
  0.5655E+00
  0.5894E+00
  0.5893E+00
  0.5678E+00
  0.5298E+00
  0.5002E+00
  0.4967E+00
  0.5036E+00
  0.5198E+00
  0.5411E+00
  0.5549E+00
  0.5279E+00
  0.3948E+00
  0.2703E+00
  0.2119E+00
  0.2004E+00
  0.2000E+00
  0.1543E+01
  0.1543E+01
  0.1543E+01
  0.1543E+01
  0.1543E+01
  0.1543E+01
  0.1543E+01
  0.1543E+01
  0.1542E+01
  0.1542E+01
  0.1541E+01
  0.1536E+01
  0.1523E+01
  0.1497E+01
  0.1454E+01
  0.1398E+01
  0.1335E+01
  0.1270E+01
  0.1205E+01
  0.1142E+01
  0.1081E+01
  0.1023E+01
  0.9673E+00
  0.9148E+00
  0.8651E+00
  0.8183E+00
  0.7742E+00
  0.7325E+00
  0.6932E+00
  0.6562E+00
  0.6214E+00
  0.5889E+00
  0.5588E+00
  0.5311E+00
  0.5063E+00
  0.4844E+00
  0.4667E+00
  0.4536E+00
  0.4523E+00
  0.4557E+00
  0.4679E+00
  0.4896E+00
  0.5214E+00
  0.5609E+00
  0.5818E+00
  0.5776E+00
  0.5495E+00
  0.5105E+00
  0.4870E+00
  0.4867E+00
  0.4974E+00
  0.5156E+00
  0.5382E+00
  0.5464E+00
  0.4971E+00
  0.3563E+00
  0.2509E+00
  0.2069E+00
  0.2002E+00
  0.2000E+00
  0.1476E+01
  0.1476E+01
  0.1476E+01
  0.1476E+01
  0.1476E+01
  0.1476E+01
  0.1476E+01
  0.1476E+01
  0.1476E+01
  0.1476E+01
  0.1475E+01
  0.1470E+01
  0.1459E+01
  0.1435E+01
  0.1395E+01
  0.1342E+01
  0.1281E+01
  0.1218E+01
  0.1155E+01
  0.1093E+01
  0.1033E+01
  0.9765E+00
  0.9224E+00
  0.8712E+00
  0.8228E+00
  0.7772E+00
  0.7343E+00
  0.6938E+00
  0.6557E+00
  0.6199E+00
  0.5862E+00
  0.5548E+00
  0.5258E+00
  0.4991E+00
  0.4751E+00
  0.4539E+00
  0.4364E+00
  0.4243E+00
  0.4236E+00
  0.4289E+00
  0.4455E+00
  0.4795E+00
  0.5241E+00
  0.5662E+00
  0.5755E+00
  0.5649E+00
  0.5298E+00
  0.4917E+00
  0.4762E+00
  0.4792E+00
  0.4928E+00
  0.5136E+00
  0.5355E+00
  0.5336E+00
  0.4554E+00
  0.3195E+00
  0.2339E+00
  0.2035E+00
  0.2001E+00
  0.2000E+00
  0.1406E+01
  0.1406E+01
  0.1406E+01
  0.1406E+01
  0.1406E+01
  0.1406E+01
  0.1406E+01
  0.1406E+01
  0.1406E+01
  0.1406E+01
  0.1404E+01
  0.1401E+01
  0.1391E+01
  0.1369E+01
  0.1332E+01
  0.1282E+01
  0.1224E+01
  0.1163E+01
  0.1102E+01
  0.1042E+01
  0.9842E+00
  0.9290E+00
  0.8766E+00
  0.8270E+00
  0.7802E+00
  0.7362E+00
  0.6947E+00
  0.6557E+00
  0.6190E+00
  0.5845E+00
  0.5522E+00
  0.5221E+00
  0.4942E+00
  0.4686E+00
  0.4455E+00
  0.4251E+00
  0.4073E+00
  0.3978E+00
  0.3987E+00
  0.4077E+00
  0.4395E+00
  0.4858E+00
  0.5362E+00
  0.5688E+00
  0.5688E+00
  0.5480E+00
  0.5089E+00
  0.4749E+00
  0.4685E+00
  0.4743E+00
  0.4904E+00
  0.5136E+00
  0.5308E+00
  0.5132E+00
  0.4057E+00
  0.2861E+00
  0.2202E+00
  0.2015E+00
  0.2000E+00
  0.2000E+00
  0.1335E+01
  0.1335E+01
  0.1335E+01
  0.1335E+01
  0.1335E+01
  0.1335E+01
  0.1335E+01
  0.1335E+01
  0.1335E+01
  0.1335E+01
  0.1334E+01
  0.1331E+01
  0.1322E+01
  0.1303E+01
  0.1269E+01
  0.1222E+01
  0.1166E+01
  0.1107E+01
  0.1049E+01
  0.9912E+00
  0.9356E+00
  0.8824E+00
  0.8318E+00
  0.7840E+00
  0.7390E+00
  0.6966E+00
  0.6567E+00
  0.6192E+00
  0.5840E+00
  0.5509E+00
  0.5199E+00
  0.4911E+00
  0.4643E+00
  0.4399E+00
  0.4175E+00
  0.3978E+00
  0.3797E+00
  0.3757E+00
  0.3792E+00
  0.4028E+00
  0.4476E+00
  0.5017E+00
  0.5509E+00
  0.5655E+00
  0.5588E+00
  0.5277E+00
  0.4873E+00
  0.4630E+00
  0.4627E+00
  0.4722E+00
  0.4911E+00
  0.5148E+00
  0.5222E+00
  0.4776E+00
  0.3553E+00
  0.2576E+00
  0.2106E+00
  0.2006E+00
  0.2000E+00
  0.2000E+00
  0.1266E+01
  0.1266E+01
  0.1266E+01
  0.1266E+01
  0.1266E+01
  0.1266E+01
  0.1266E+01
  0.1266E+01
  0.1266E+01
  0.1266E+01
  0.1265E+01
  0.1262E+01
  0.1255E+01
  0.1238E+01
  0.1207E+01
  0.1163E+01
  0.1110E+01
  0.1054E+01
  0.9977E+00
  0.9424E+00
  0.8889E+00
  0.8377E+00
  0.7890E+00
  0.7430E+00
  0.6997E+00
  0.6589E+00
  0.6207E+00
  0.5847E+00
  0.5509E+00
  0.5192E+00
  0.4895E+00
  0.4619E+00
  0.4364E+00
  0.4128E+00
  0.3913E+00
  0.3715E+00
  0.3574E+00
  0.3579E+00
  0.3749E+00
  0.4136E+00
  0.4679E+00
  0.5233E+00
  0.5593E+00
  0.5607E+00
  0.5431E+00
  0.5042E+00
  0.4667E+00
  0.4564E+00
  0.4598E+00
  0.4729E+00
  0.4950E+00
  0.5139E+00
  0.5061E+00
  0.4259E+00
  0.3105E+00
  0.2348E+00
  0.2047E+00
  0.2002E+00
  0.2000E+00
  0.2000E+00
  0.1200E+01
  0.1200E+01
  0.1200E+01
  0.1200E+01
  0.1200E+01
  0.1200E+01
  0.1200E+01
  0.1200E+01
  0.1200E+01
  0.1200E+01
  0.1199E+01
  0.1197E+01
  0.1191E+01
  0.1175E+01
  0.1148E+01
  0.1107E+01
  0.1057E+01
  0.1003E+01
  0.9493E+00
  0.8961E+00
  0.8447E+00
  0.7954E+00
  0.7486E+00
  0.7044E+00
  0.6627E+00
  0.6236E+00
  0.5868E+00
  0.5523E+00
  0.5199E+00
  0.4895E+00
  0.4611E+00
  0.4346E+00
  0.4102E+00
  0.3873E+00
  0.3664E+00
  0.3465E+00
  0.3434E+00
  0.3540E+00
  0.3871E+00
  0.4382E+00
  0.4941E+00
  0.5432E+00
  0.5585E+00
  0.5519E+00
  0.5203E+00
  0.4782E+00
  0.4527E+00
  0.4522E+00
  0.4601E+00
  0.4777E+00
  0.4995E+00
  0.5072E+00
  0.4739E+00
  0.3688E+00
  0.2729E+00
  0.2183E+00
  0.2018E+00
  0.2001E+00
  0.2000E+00
  0.2000E+00
  0.1138E+01
  0.1138E+01
  0.1138E+01
  0.1138E+01
  0.1138E+01
  0.1138E+01
  0.1138E+01
  0.1138E+01
  0.1138E+01
  0.1138E+01
  0.1137E+01
  0.1135E+01
  0.1130E+01
  0.1117E+01
  0.1092E+01
  0.1054E+01
  0.1007E+01
  0.9559E+00
  0.9039E+00
  0.8528E+00
  0.8033E+00
  0.7559E+00
  0.7108E+00
  0.6683E+00
  0.6282E+00
  0.5906E+00
  0.5552E+00
  0.5221E+00
  0.4910E+00
  0.4619E+00
  0.4346E+00
  0.4093E+00
  0.3855E+00
  0.3637E+00
  0.3405E+00
  0.3333E+00
  0.3405E+00
  0.3674E+00
  0.4140E+00
  0.4695E+00
  0.5216E+00
  0.5517E+00
  0.5516E+00
  0.5309E+00
  0.4899E+00
  0.4546E+00
  0.4469E+00
  0.4512E+00
  0.4647E+00
  0.4851E+00
  0.4996E+00
  0.4909E+00
  0.4206E+00
  0.3177E+00
  0.2433E+00
  0.2081E+00
  0.2006E+00
  0.2000E+00
  0.2000E+00
  0.2000E+00
  0.1080E+01
  0.1080E+01
  0.1080E+01
  0.1080E+01
  0.1080E+01
  0.1080E+01
  0.1080E+01
  0.1080E+01
  0.1080E+01
  0.1080E+01
  0.1079E+01
  0.1078E+01
  0.1073E+01
  0.1062E+01
  0.1040E+01
  0.1005E+01
  0.9605E+00
  0.9117E+00
  0.8619E+00
  0.8127E+00
  0.7650E+00
  0.7193E+00
  0.6759E+00
  0.6349E+00
  0.5963E+00
  0.5601E+00
  0.5261E+00
  0.4942E+00
  0.4643E+00
  0.4363E+00
  0.4102E+00
  0.3855E+00
  0.3629E+00
  0.3383E+00
  0.3288E+00
  0.3332E+00
  0.3545E+00
  0.3953E+00
  0.4466E+00
  0.4991E+00
  0.5408E+00
  0.5483E+00
  0.5352E+00
  0.4973E+00
  0.4588E+00
  0.4435E+00
  0.4456E+00
  0.4553E+00
  0.4728E+00
  0.4896E+00
  0.4911E+00
  0.4546E+00
  0.3612E+00
  0.2754E+00
  0.2222E+00
  0.2030E+00
  0.2002E+00
  0.2000E+00
  0.2000E+00
  0.2000E+00
  0.1027E+01
  0.1027E+01
  0.1027E+01
  0.1027E+01
  0.1027E+01
  0.1027E+01
  0.1027E+01
  0.1027E+01
  0.1027E+01
  0.1027E+01
  0.1026E+01
  0.1025E+01
  0.1021E+01
  0.1012E+01
  0.9915E+00
  0.9594E+00
  0.9178E+00
  0.8713E+00
  0.8233E+00
  0.7759E+00
  0.7299E+00
  0.6858E+00
  0.6439E+00
  0.6043E+00
  0.5671E+00
  0.5321E+00
  0.4993E+00
  0.4686E+00
  0.4399E+00
  0.4128E+00
  0.3873E+00
  0.3637E+00
  0.3384E+00
  0.3274E+00
  0.3304E+00
  0.3477E+00
  0.3839E+00
  0.4313E+00
  0.4808E+00
  0.5257E+00
  0.5423E+00
  0.5351E+00
  0.5020E+00
  0.4616E+00
  0.4414E+00
  0.4421E+00
  0.4491E+00
  0.4641E+00
  0.4800E+00
  0.4868E+00
  0.4694E+00
  0.3969E+00
  0.3088E+00
  0.2430E+00
  0.2095E+00
  0.2009E+00
  0.2000E+00
  0.2000E+00
  0.2000E+00
  0.2000E+00
  0.9785E+00
  0.9785E+00
  0.9785E+00
  0.9785E+00
  0.9785E+00
  0.9785E+00
  0.9785E+00
  0.9785E+00
  0.9785E+00
  0.9784E+00
  0.9782E+00
  0.9773E+00
  0.9741E+00
  0.9656E+00
  0.9478E+00
  0.9184E+00
  0.8793E+00
  0.8348E+00
  0.7887E+00
  0.7429E+00
  0.6984E+00
  0.6557E+00
  0.6151E+00
  0.5768E+00
  0.5408E+00
  0.5070E+00
  0.4753E+00
  0.4455E+00
  0.4175E+00
  0.3913E+00
  0.3664E+00
  0.3404E+00
  0.3286E+00
  0.3304E+00
  0.3431E+00
  0.3747E+00
  0.4196E+00
  0.4680E+00
  0.5154E+00
  0.5383E+00
  0.5342E+00
  0.5056E+00
  0.4651E+00
  0.4411E+00
  0.4401E+00
  0.4450E+00
  0.4579E+00
  0.4727E+00
  0.4807E+00
  0.4733E+00
  0.4218E+00
  0.3385E+00
  0.2664E+00
  0.2208E+00
  0.2033E+00
  0.2002E+00
  0.2000E+00
  0.2000E+00
  0.2000E+00
  0.2000E+00
  0.9360E+00
  0.9360E+00
  0.9360E+00
  0.9360E+00
  0.9360E+00
  0.9360E+00
  0.9360E+00
  0.9360E+00
  0.9360E+00
  0.9360E+00
  0.9358E+00
  0.9350E+00
  0.9324E+00
  0.9251E+00
  0.9093E+00
  0.8823E+00
  0.8455E+00
  0.8030E+00
  0.7585E+00
  0.7142E+00
  0.6711E+00
  0.6297E+00
  0.5902E+00
  0.5529E+00
  0.5179E+00
  0.4849E+00
  0.4540E+00
  0.4251E+00
  0.3978E+00
  0.3714E+00
  0.3465E+00
  0.3336E+00
  0.3337E+00
  0.3471E+00
  0.3747E+00
  0.4099E+00
  0.4541E+00
  0.5018E+00
  0.5346E+00
  0.5349E+00
  0.5118E+00
  0.4708E+00
  0.4435E+00
  0.4398E+00
  0.4428E+00
  0.4533E+00
  0.4666E+00
  0.4755E+00
  0.4732E+00
  0.4373E+00
  0.3623E+00
  0.2887E+00
  0.2353E+00
  0.2082E+00
  0.2009E+00
  0.2000E+00
  0.2000E+00
  0.2000E+00
  0.2000E+00
  0.2000E+00
  0.9021E+00
  0.9021E+00
  0.9021E+00
  0.9021E+00
  0.9021E+00
  0.9021E+00
  0.9021E+00
  0.9021E+00
  0.9021E+00
  0.9021E+00
  0.9019E+00
  0.9013E+00
  0.8991E+00
  0.8929E+00
  0.8788E+00
  0.8541E+00
  0.8194E+00
  0.7785E+00
  0.7353E+00
  0.6921E+00
  0.6499E+00
  0.6093E+00
  0.5707E+00
  0.5341E+00
  0.4996E+00
  0.4671E+00
  0.4365E+00
  0.4073E+00
  0.3796E+00
  0.3573E+00
  0.3428E+00
  0.3412E+00
  0.3539E+00
  0.3839E+00
  0.4195E+00
  0.4542E+00
  0.4931E+00
  0.5255E+00
  0.5322E+00
  0.5163E+00
  0.4777E+00
  0.4488E+00
  0.4421E+00
  0.4435E+00
  0.4505E+00
  0.4613E+00
  0.4707E+00
  0.4710E+00
  0.4462E+00
  0.3803E+00
  0.3079E+00
  0.2503E+00
  0.2155E+00
  0.2026E+00
  0.2002E+00
  0.2000E+00
  0.2000E+00
  0.2000E+00
  0.2000E+00
  0.2000E+00
  0.8776E+00
  0.8776E+00
  0.8776E+00
  0.8776E+00
  0.8776E+00
  0.8776E+00
  0.8776E+00
  0.8776E+00
  0.8776E+00
  0.8775E+00
  0.8774E+00
  0.8769E+00
  0.8750E+00
  0.8695E+00
  0.8569E+00
  0.8344E+00
  0.8019E+00
  0.7625E+00
  0.7203E+00
  0.6776E+00
  0.6358E+00
  0.5954E+00
  0.5568E+00
  0.5203E+00
  0.4859E+00
  0.4539E+00
  0.4243E+00
  0.3978E+00
  0.3758E+00
  0.3579E+00
  0.3547E+00
  0.3668E+00
  0.3956E+00
  0.4311E+00
  0.4679E+00
  0.5020E+00
  0.5263E+00
  0.5290E+00
  0.5176E+00
  0.4831E+00
  0.4538E+00
  0.4462E+00
  0.4464E+00
  0.4504E+00
  0.4583E+00
  0.4665E+00
  0.4678E+00
  0.4490E+00
  0.3920E+00
  0.3232E+00
  0.2640E+00
  0.2240E+00
  0.2054E+00
  0.2006E+00
  0.2000E+00
  0.2000E+00
  0.2000E+00
  0.2000E+00
  0.2000E+00
  0.2000E+00
  0.8706E+00
  0.8706E+00
  0.8706E+00
  0.8706E+00
  0.8706E+00
  0.8706E+00
  0.8706E+00
  0.8706E+00
  0.8706E+00
  0.8706E+00
  0.8705E+00
  0.8702E+00
  0.8687E+00
  0.8643E+00
  0.8534E+00
  0.8320E+00
  0.8002E+00
  0.7612E+00
  0.7191E+00
  0.6765E+00
  0.6345E+00
  0.5939E+00
  0.5551E+00
  0.5185E+00
  0.4842E+00
  0.4525E+00
  0.4237E+00
  0.3987E+00
  0.3792E+00
  0.3751E+00
  0.3866E+00
  0.4142E+00
  0.4467E+00
  0.4807E+00
  0.5152E+00
  0.5346E+00
  0.5321E+00
  0.5182E+00
  0.4861E+00
  0.4566E+00
  0.4484E+00
  0.4486E+00
  0.4516E+00
  0.4576E+00
  0.4642E+00
  0.4655E+00
  0.4495E+00
  0.3980E+00
  0.3336E+00
  0.2753E+00
  0.2325E+00
  0.2092E+00
  0.2015E+00
  0.2001E+00
  0.2000E+00
  0.2000E+00
  0.2000E+00
  0.2000E+00
  0.2000E+00
  0.2000E+00
  0.8711E+00
  0.8711E+00
  0.8711E+00
  0.8711E+00
  0.8711E+00
  0.8711E+00
  0.8711E+00
  0.8711E+00
  0.8711E+00
  0.8710E+00
  0.8710E+00
  0.8706E+00
  0.8693E+00
  0.8651E+00
  0.8547E+00
  0.8345E+00
  0.8040E+00
  0.7658E+00
  0.7238E+00
  0.6809E+00
  0.6385E+00
  0.5972E+00
  0.5579E+00
  0.5210E+00
  0.4870E+00
  0.4559E+00
  0.4289E+00
  0.4077E+00
  0.4029E+00
  0.4131E+00
  0.4383E+00
  0.4693E+00
  0.4993E+00
  0.5259E+00
  0.5378E+00
  0.5349E+00
  0.5166E+00
  0.4835E+00
  0.4570E+00
  0.4486E+00
  0.4488E+00
  0.4514E+00
  0.4571E+00
  0.4633E+00
  0.4645E+00
  0.4508E+00
  0.4025E+00
  0.3405E+00
  0.2835E+00
  0.2399E+00
  0.2133E+00
  0.2027E+00
  0.2003E+00
  0.2000E+00
  0.2000E+00
  0.2000E+00
  0.2000E+00
  0.2000E+00
  0.2000E+00
  0.2000E+00
  0.8769E+00
  0.8769E+00
  0.8769E+00
  0.8769E+00
  0.8769E+00
  0.8769E+00
  0.8769E+00
  0.8769E+00
  0.8769E+00
  0.8768E+00
  0.8768E+00
  0.8765E+00
  0.8754E+00
  0.8719E+00
  0.8628E+00
  0.8445E+00
  0.8152E+00
  0.7772E+00
  0.7347E+00
  0.6909E+00
  0.6478E+00
  0.6062E+00
  0.5668E+00
  0.5301E+00
  0.4968E+00
  0.4680E+00
  0.4457E+00
  0.4394E+00
  0.4475E+00
  0.4680E+00
  0.4941E+00
  0.5213E+00
  0.5414E+00
  0.5424E+00
  0.5345E+00
  0.5116E+00
  0.4777E+00
  0.4538E+00
  0.4484E+00
  0.4489E+00
  0.4509E+00
  0.4558E+00
  0.4620E+00
  0.4637E+00
  0.4512E+00
  0.4053E+00
  0.3455E+00
  0.2894E+00
  0.2456E+00
  0.2173E+00
  0.2042E+00
  0.2006E+00
  0.2001E+00
  0.2000E+00
  0.2000E+00
  0.2000E+00
  0.2000E+00
  0.2000E+00
  0.2000E+00
  0.2000E+00
  0.8885E+00
  0.8885E+00
  0.8885E+00
  0.8885E+00
  0.8885E+00
  0.8885E+00
  0.8885E+00
  0.8885E+00
  0.8885E+00
  0.8885E+00
  0.8884E+00
  0.8882E+00
  0.8873E+00
  0.8842E+00
  0.8760E+00
  0.8584E+00
  0.8296E+00
  0.7913E+00
  0.7480E+00
  0.7033E+00
  0.6593E+00
  0.6175E+00
  0.5786E+00
  0.5432E+00
  0.5127E+00
  0.4897E+00
  0.4796E+00
  0.4856E+00
  0.5019E+00
  0.5235E+00
  0.5431E+00
  0.5519E+00
  0.5477E+00
  0.5354E+00
  0.5058E+00
  0.4707E+00
  0.4487E+00
  0.4461E+00
  0.4485E+00
  0.4515E+00
  0.4557E+00
  0.4610E+00
  0.4625E+00
  0.4506E+00
  0.4056E+00
  0.3476E+00
  0.2934E+00
  0.2499E+00
  0.2206E+00
  0.2058E+00
  0.2010E+00
  0.2001E+00
  0.2000E+00
  0.2000E+00
  0.2000E+00
  0.2000E+00
  0.2000E+00
  0.2000E+00
  0.2000E+00
  0.2000E+00
  0.8984E+00
  0.8984E+00
  0.8984E+00
  0.8984E+00
  0.8984E+00
  0.8984E+00
  0.8984E+00
  0.8984E+00
  0.8984E+00
  0.8984E+00
  0.8984E+00
  0.8982E+00
  0.8974E+00
  0.8946E+00
  0.8869E+00
  0.8702E+00
  0.8420E+00
  0.8037E+00
  0.7598E+00
  0.7146E+00
  0.6706E+00
  0.6294E+00
  0.5920E+00
  0.5600E+00
  0.5354E+00
  0.5214E+00
  0.5242E+00
  0.5361E+00
  0.5513E+00
  0.5593E+00
  0.5581E+00
  0.5518E+00
  0.5353E+00
  0.5016E+00
  0.4653E+00
  0.4434E+00
  0.4425E+00
  0.4461E+00
  0.4515E+00
  0.4570E+00
  0.4619E+00
  0.4623E+00
  0.4498E+00
  0.4052E+00
  0.3478E+00
  0.2950E+00
  0.2528E+00
  0.2231E+00
  0.2071E+00
  0.2014E+00
  0.2002E+00
  0.2000E+00
  0.2000E+00
  0.2000E+00
  0.2000E+00
  0.2000E+00
  0.2000E+00
  0.2000E+00
  0.2000E+00
  0.2000E+00
  0.9019E+00
  0.9019E+00
  0.9019E+00
  0.9019E+00
  0.9019E+00
  0.9019E+00
  0.9019E+00
  0.9019E+00
  0.9019E+00
  0.9018E+00
  0.9018E+00
  0.9016E+00
  0.9009E+00
  0.8983E+00
  0.8912E+00
  0.8753E+00
  0.8479E+00
  0.8104E+00
  0.7674E+00
  0.7233E+00
  0.6809E+00
  0.6421E+00
  0.6089E+00
  0.5831E+00
  0.5659E+00
  0.5609E+00
  0.5661E+00
  0.5689E+00
  0.5655E+00
  0.5607E+00
  0.5518E+00
  0.5308E+00
  0.4974E+00
  0.4618E+00
  0.4412E+00
  0.4401E+00
  0.4434E+00
  0.4505E+00
  0.4576E+00
  0.4633E+00
  0.4635E+00
  0.4506E+00
  0.4051E+00
  0.3476E+00
  0.2952E+00
  0.2541E+00
  0.2249E+00
  0.2083E+00
  0.2018E+00
  0.2003E+00
  0.2000E+00
  0.2000E+00
  0.2000E+00
  0.2000E+00
  0.2000E+00
  0.2000E+00
  0.2000E+00
  0.2000E+00
  0.2000E+00
  0.2000E+00
  0.9007E+00
  0.9007E+00
  0.9007E+00
  0.9007E+00
  0.9007E+00
  0.9007E+00
  0.9007E+00
  0.9007E+00
  0.9007E+00
  0.9007E+00
  0.9007E+00
  0.9005E+00
  0.8997E+00
  0.8972E+00
  0.8900E+00
  0.8743E+00
  0.8471E+00
  0.8101E+00
  0.7680E+00
  0.7257E+00
  0.6865E+00
  0.6524E+00
  0.6247E+00
  0.6040E+00
  0.5898E+00
  0.5819E+00
  0.5753E+00
  0.5689E+00
  0.5588E+00
  0.5431E+00
  0.5202E+00
  0.4899E+00
  0.4583E+00
  0.4416E+00
  0.4401E+00
  0.4429E+00
  0.4506E+00
  0.4585E+00
  0.4643E+00
  0.4644E+00
  0.4513E+00
  0.4054E+00
  0.3477E+00
  0.2952E+00
  0.2541E+00
  0.2257E+00
  0.2092E+00
  0.2022E+00
  0.2003E+00
  0.2000E+00
  0.2000E+00
  0.2000E+00
  0.2000E+00
  0.2000E+00
  0.2000E+00
  0.2000E+00
  0.2000E+00
  0.2000E+00
  0.2000E+00
  0.2000E+00
  0.8875E+00
  0.8875E+00
  0.8875E+00
  0.8875E+00
  0.8875E+00
  0.8875E+00
  0.8875E+00
  0.8875E+00
  0.8875E+00
  0.8875E+00
  0.8874E+00
  0.8872E+00
  0.8864E+00
  0.8837E+00
  0.8765E+00
  0.8609E+00
  0.8346E+00
  0.7993E+00
  0.7599E+00
  0.7203E+00
  0.6836E+00
  0.6518E+00
  0.6257E+00
  0.6053E+00
  0.5896E+00
  0.5777E+00
  0.5649E+00
  0.5479E+00
  0.5276E+00
  0.5041E+00
  0.4783E+00
  0.4546E+00
  0.4434E+00
  0.4420E+00
  0.4452E+00
  0.4534E+00
  0.4615E+00
  0.4665E+00
  0.4654E+00
  0.4509E+00
  0.4051E+00
  0.3476E+00
  0.2950E+00
  0.2541E+00
  0.2257E+00
  0.2095E+00
  0.2024E+00
  0.2004E+00
  0.2001E+00
  0.2000E+00
  0.2000E+00
  0.2000E+00
  0.2000E+00
  0.2000E+00
  0.2000E+00
  0.2000E+00
  0.2000E+00
  0.2000E+00
  0.2000E+00
  0.2000E+00
  0.8370E+00
  0.8370E+00
  0.8370E+00
  0.8370E+00
  0.8370E+00
  0.8370E+00
  0.8370E+00
  0.8370E+00
  0.8370E+00
  0.8369E+00
  0.8369E+00
  0.8366E+00
  0.8357E+00
  0.8329E+00
  0.8254E+00
  0.8104E+00
  0.7863E+00
  0.7551E+00
  0.7215E+00
  0.6890E+00
  0.6593E+00
  0.6329E+00
  0.6093E+00
  0.5881E+00
  0.5682E+00
  0.5496E+00
  0.5298E+00
  0.5090E+00
  0.4874E+00
  0.4666E+00
  0.4527E+00
  0.4474E+00
  0.4456E+00
  0.4492E+00
  0.4580E+00
  0.4664E+00
  0.4706E+00
  0.4677E+00
  0.4496E+00
  0.4024E+00
  0.3455E+00
  0.2934E+00
  0.2528E+00
  0.2249E+00
  0.2092E+00
  0.2024E+00
  0.2005E+00
  0.2001E+00
  0.2000E+00
  0.2000E+00
  0.2000E+00
  0.2000E+00
  0.2000E+00
  0.2000E+00
  0.2000E+00
  0.2000E+00
  0.2000E+00
  0.2000E+00
  0.2000E+00
  0.2000E+00
  0.7650E+00
  0.7650E+00
  0.7650E+00
  0.7650E+00
  0.7650E+00
  0.7650E+00
  0.7650E+00
  0.7650E+00
  0.7650E+00
  0.7649E+00
  0.7649E+00
  0.7646E+00
  0.7635E+00
  0.7604E+00
  0.7530E+00
  0.7389E+00
  0.7179E+00
  0.6923E+00
  0.6656E+00
  0.6395E+00
  0.6154E+00
  0.5930E+00
  0.5716E+00
  0.5508E+00
  0.5303E+00
  0.5106E+00
  0.4917E+00
  0.4749E+00
  0.4630E+00
  0.4564E+00
  0.4520E+00
  0.4511E+00
  0.4553E+00
  0.4641E+00
  0.4725E+00
  0.4757E+00
  0.4710E+00
  0.4488E+00
  0.3981E+00
  0.3405E+00
  0.2895E+00
  0.2499E+00
  0.2231E+00
  0.2083E+00
  0.2022E+00
  0.2004E+00
  0.2001E+00
  0.2000E+00
  0.2000E+00
  0.2000E+00
  0.2000E+00
  0.2000E+00
  0.2000E+00
  0.2000E+00
  0.2000E+00
  0.2000E+00
  0.2000E+00
  0.2000E+00
  0.2000E+00
  0.2000E+00
  0.6983E+00
  0.6983E+00
  0.6983E+00
  0.6983E+00
  0.6983E+00
  0.6983E+00
  0.6983E+00
  0.6983E+00
  0.6983E+00
  0.6983E+00
  0.6982E+00
  0.6978E+00
  0.6967E+00
  0.6934E+00
  0.6860E+00
  0.6731E+00
  0.6551E+00
  0.6346E+00
  0.6135E+00
  0.5934E+00
  0.5737E+00
  0.5542E+00
  0.5353E+00
  0.5173E+00
  0.5009E+00
  0.4871E+00
  0.4763E+00
  0.4686E+00
  0.4627E+00
  0.4597E+00
  0.4601E+00
  0.4645E+00
  0.4729E+00
  0.4801E+00
  0.4807E+00
  0.4736E+00
  0.4460E+00
  0.3920E+00
  0.3336E+00
  0.2835E+00
  0.2457E+00
  0.2206E+00
  0.2071E+00
  0.2018E+00
  0.2003E+00
  0.2001E+00
  0.2000E+00
  0.2000E+00
  0.2000E+00
  0.2000E+00
  0.2000E+00
  0.2000E+00
  0.2000E+00
  0.2000E+00
  0.2000E+00
  0.2000E+00
  0.2000E+00
  0.2000E+00
  0.2000E+00
  0.2000E+00
  0.6566E+00
  0.6566E+00
  0.6566E+00
  0.6566E+00
  0.6566E+00
  0.6566E+00
  0.6566E+00
  0.6566E+00
  0.6565E+00
  0.6565E+00
  0.6564E+00
  0.6561E+00
  0.6548E+00
  0.6514E+00
  0.6442E+00
  0.6324E+00
  0.6172E+00
  0.6006E+00
  0.5844E+00
  0.5683E+00
  0.5521E+00
  0.5364E+00
  0.5222E+00
  0.5092E+00
  0.4975E+00
  0.4869E+00
  0.4792E+00
  0.4743E+00
  0.4721E+00
  0.4729E+00
  0.4776E+00
  0.4849E+00
  0.4896E+00
  0.4862E+00
  0.4736E+00
  0.4373E+00
  0.3804E+00
  0.3231E+00
  0.2753E+00
  0.2399E+00
  0.2173E+00
  0.2058E+00
  0.2014E+00
  0.2003E+00
  0.2000E+00
  0.2000E+00
  0.2000E+00
  0.2000E+00
  0.2000E+00
  0.2000E+00
  0.2000E+00
  0.2000E+00
  0.2000E+00
  0.2000E+00
  0.2000E+00
  0.2000E+00
  0.2000E+00
  0.2000E+00
  0.2000E+00
  0.2000E+00
  0.6464E+00
  0.6464E+00
  0.6464E+00
  0.6464E+00
  0.6464E+00
  0.6464E+00
  0.6464E+00
  0.6464E+00
  0.6464E+00
  0.6464E+00
  0.6463E+00
  0.6459E+00
  0.6446E+00
  0.6413E+00
  0.6348E+00
  0.6246E+00
  0.6115E+00
  0.5971E+00
  0.5822E+00
  0.5671E+00
  0.5520E+00
  0.5377E+00
  0.5249E+00
  0.5138E+00
  0.5045E+00
  0.4976E+00
  0.4928E+00
  0.4905E+00
  0.4912E+00
  0.4948E+00
  0.4998E+00
  0.4995E+00
  0.4915E+00
  0.4694E+00
  0.4215E+00
  0.3624E+00
  0.3078E+00
  0.2639E+00
  0.2324E+00
  0.2133E+00
  0.2042E+00
  0.2010E+00
  0.2002E+00
  0.2000E+00
  0.2000E+00
  0.2000E+00
  0.2000E+00
  0.2000E+00
  0.2000E+00
  0.2000E+00
  0.2000E+00
  0.2000E+00
  0.2000E+00
  0.2000E+00
  0.2000E+00
  0.2000E+00
  0.2000E+00
  0.2000E+00
  0.2000E+00
  0.2000E+00
  0.6459E+00
  0.6459E+00
  0.6459E+00
  0.6459E+00
  0.6459E+00
  0.6459E+00
  0.6459E+00
  0.6459E+00
  0.6459E+00
  0.6459E+00
  0.6458E+00
  0.6454E+00
  0.6442E+00
  0.6410E+00
  0.6346E+00
  0.6248E+00
  0.6125E+00
  0.5993E+00
  0.5862E+00
  0.5729E+00
  0.5599E+00
  0.5477E+00
  0.5370E+00
  0.5279E+00
  0.5207E+00
  0.5159E+00
  0.5137E+00
  0.5137E+00
  0.5150E+00
  0.5139E+00
  0.5070E+00
  0.4913E+00
  0.4545E+00
  0.3968E+00
  0.3385E+00
  0.2887E+00
  0.2503E+00
  0.2240E+00
  0.2092E+00
  0.2027E+00
  0.2006E+00
  0.2001E+00
  0.2000E+00
  0.2000E+00
  0.2000E+00
  0.2000E+00
  0.2000E+00
  0.2000E+00
  0.2000E+00
  0.2000E+00
  0.2000E+00
  0.2000E+00
  0.2000E+00
  0.2000E+00
  0.2000E+00
  0.2000E+00
  0.2000E+00
  0.2000E+00
  0.2000E+00
  0.2000E+00
  0.6469E+00
  0.6469E+00
  0.6469E+00
  0.6469E+00
  0.6469E+00
  0.6469E+00
  0.6469E+00
  0.6469E+00
  0.6469E+00
  0.6468E+00
  0.6468E+00
  0.6464E+00
  0.6452E+00
  0.6422E+00
  0.6365E+00
  0.6279E+00
  0.6175E+00
  0.6064E+00
  0.5949E+00
  0.5834E+00
  0.5724E+00
  0.5625E+00
  0.5538E+00
  0.5466E+00
  0.5419E+00
  0.5385E+00
  0.5355E+00
  0.5309E+00
  0.5220E+00
  0.5063E+00
  0.4738E+00
  0.4205E+00
  0.3613E+00
  0.3087E+00
  0.2664E+00
  0.2353E+00
  0.2155E+00
  0.2054E+00
  0.2015E+00
  0.2003E+00
  0.2001E+00
  0.2000E+00
  0.2000E+00
  0.2000E+00
  0.2000E+00
  0.2000E+00
  0.2000E+00
  0.2000E+00
  0.2000E+00
  0.2000E+00
  0.2000E+00
  0.2000E+00
  0.2000E+00
  0.2000E+00
  0.2000E+00
  0.2000E+00
  0.2000E+00
  0.2000E+00
  0.2000E+00
  0.2000E+00
  0.6530E+00
  0.6530E+00
  0.6530E+00
  0.6530E+00
  0.6530E+00
  0.6530E+00
  0.6530E+00
  0.6530E+00
  0.6530E+00
  0.6529E+00
  0.6529E+00
  0.6525E+00
  0.6515E+00
  0.6491E+00
  0.6442E+00
  0.6369E+00
  0.6279E+00
  0.6179E+00
  0.6075E+00
  0.5977E+00
  0.5880E+00
  0.5790E+00
  0.5710E+00
  0.5636E+00
  0.5556E+00
  0.5466E+00
  0.5336E+00
  0.5132E+00
  0.4777E+00
  0.4257E+00
  0.3689E+00
  0.3177E+00
  0.2754E+00
  0.2430E+00
  0.2208E+00
  0.2082E+00
  0.2026E+00
  0.2006E+00
  0.2001E+00
  0.2000E+00
  0.2000E+00
  0.2000E+00
  0.2000E+00
  0.2000E+00
  0.2000E+00
  0.2000E+00
  0.2000E+00
  0.2000E+00
  0.2000E+00
  0.2000E+00
  0.2000E+00
  0.2000E+00
  0.2000E+00
  0.2000E+00
  0.2000E+00
  0.2000E+00
  0.2000E+00
  0.2000E+00
  0.2000E+00
  0.2000E+00
  0.6543E+00
  0.6543E+00
  0.6543E+00
  0.6543E+00