# vtk DataFile Version 3.0
vtk output
ASCII
DATASET RECTILINEAR_GRID
DIMENSIONS          61          61 1
X_COORDINATES    61 double
  0.0000E+00
  0.1667E+00
  0.3333E+00
  0.5000E+00
  0.6667E+00
  0.8333E+00
  0.1000E+01
  0.1167E+01
  0.1333E+01
  0.1500E+01
  0.1667E+01
  0.1833E+01
  0.2000E+01
  0.2167E+01
  0.2333E+01
  0.2500E+01
  0.2667E+01
  0.2833E+01
  0.3000E+01
  0.3167E+01
  0.3333E+01
  0.3500E+01
  0.3667E+01
  0.3833E+01
  0.4000E+01
  0.4167E+01
  0.4333E+01
  0.4500E+01
  0.4667E+01
  0.4833E+01
  0.5000E+01
  0.5167E+01
  0.5333E+01
  0.5500E+01
  0.5667E+01
  0.5833E+01
  0.6000E+01
  0.6167E+01
  0.6333E+01
  0.6500E+01
  0.6667E+01
  0.6833E+01
  0.7000E+01
  0.7167E+01
  0.7333E+01
  0.7500E+01
  0.7667E+01
  0.7833E+01
  0.8000E+01
  0.8167E+01
  0.8333E+01
  0.8500E+01
  0.8667E+01
  0.8833E+01
  0.9000E+01
  0.9167E+01
  0.9333E+01
  0.9500E+01
  0.9667E+01
  0.9833E+01
  0.1000E+02
Y_COORDINATES    61 double
  0.0000E+00
  0.1667E+00
  0.3333E+00
  0.5000E+00
  0.6667E+00
  0.8333E+00
  0.1000E+01
  0.1167E+01
  0.1333E+01
  0.1500E+01
  0.1667E+01
  0.1833E+01
  0.2000E+01
  0.2167E+01
  0.2333E+01
  0.2500E+01
  0.2667E+01
  0.2833E+01
  0.3000E+01
  0.3167E+01
  0.3333E+01
  0.3500E+01
  0.3667E+01
  0.3833E+01
  0.4000E+01
  0.4167E+01
  0.4333E+01
  0.4500E+01
  0.4667E+01
  0.4833E+01
  0.5000E+01
  0.5167E+01
  0.5333E+01
  0.5500E+01
  0.5667E+01
  0.5833E+01
  0.6000E+01
  0.6167E+01
  0.6333E+01
  0.6500E+01
  0.6667E+01
  0.6833E+01
  0.7000E+01
  0.7167E+01
  0.7333E+01
  0.7500E+01
  0.7667E+01
  0.7833E+01
  0.8000E+01
  0.8167E+01
  0.8333E+01
  0.8500E+01
  0.8667E+01
  0.8833E+01
  0.9000E+01
  0.9167E+01
  0.9333E+01
  0.9500E+01
  0.9667E+01
  0.9833E+01
  0.1000E+02
Z_COORDINATES 1 double
0
CELL_DATA                 3600
FIELD FieldData 4
density 1                 3600 double
  0.4537E+01
  0.4537E+01
  0.4537E+01
  0.4537E+01
  0.4537E+01
  0.4537E+01
  0.4537E+01
  0.4537E+01
  0.4537E+01
  0.4537E+01
  0.4537E+01
  0.4537E+01
  0.4534E+01
  0.4524E+01
  0.4494E+01
  0.4423E+01
  0.4298E+01
  0.4125E+01
  0.3924E+01
  0.3717E+01
  0.3512E+01
  0.3314E+01
  0.3125E+01
  0.2948E+01
  0.2782E+01
  0.2627E+01
  0.2481E+01
  0.2344E+01
  0.2215E+01
  0.2093E+01
  0.1978E+01
  0.1869E+01
  0.1766E+01
  0.1668E+01
  0.1575E+01
  0.1487E+01
  0.1406E+01
  0.1333E+01
  0.1274E+01
  0.1233E+01
  0.1229E+01
  0.1240E+01
  0.1256E+01
  0.1263E+01
  0.1257E+01
  0.1207E+01
  0.1088E+01
  0.9372E+00
  0.7950E+00
  0.6940E+00
  0.6477E+00
  0.6442E+00
  0.6524E+00
  0.6630E+00
  0.6155E+00
  0.4182E+00
  0.2643E+00
  0.2067E+00
  0.2001E+00
  0.2000E+00
  0.4480E+01
  0.4480E+01
  0.4480E+01
  0.4480E+01
  0.4480E+01
  0.4480E+01
  0.4480E+01
  0.4480E+01
  0.4480E+01
  0.4480E+01
  0.4480E+01
  0.4479E+01
  0.4477E+01
  0.4467E+01
  0.4437E+01
  0.4368E+01
  0.4245E+01
  0.4073E+01
  0.3874E+01
  0.3668E+01
  0.3464E+01
  0.3266E+01
  0.3078E+01
  0.2901E+01
  0.2735E+01
  0.2580E+01
  0.2434E+01
  0.2296E+01
  0.2167E+01
  0.2045E+01
  0.1930E+01
  0.1821E+01
  0.1719E+01
  0.1621E+01
  0.1529E+01
  0.1442E+01
  0.1361E+01
  0.1290E+01
  0.1232E+01
  0.1193E+01
  0.1188E+01
  0.1198E+01
  0.1215E+01
  0.1221E+01
  0.1216E+01
  0.1169E+01
  0.1059E+01
  0.9179E+00
  0.7840E+00
  0.6880E+00
  0.6441E+00
  0.6413E+00
  0.6506E+00
  0.6593E+00
  0.6076E+00
  0.4101E+00
  0.2612E+00
  0.2062E+00
  0.2001E+00
  0.2000E+00
  0.4362E+01
  0.4362E+01
  0.4362E+01
  0.4362E+01
  0.4362E+01
  0.4362E+01
  0.4362E+01
  0.4362E+01
  0.4362E+01
  0.4362E+01
  0.4362E+01
  0.4361E+01
  0.4359E+01
  0.4350E+01
  0.4322E+01
  0.4256E+01
  0.4136E+01
  0.3968E+01
  0.3773E+01
  0.3569E+01
  0.3367E+01
  0.3171E+01
  0.2985E+01
  0.2809E+01
  0.2644E+01
  0.2489E+01
  0.2344E+01
  0.2208E+01
  0.2079E+01
  0.1958E+01
  0.1844E+01
  0.1736E+01
  0.1635E+01
  0.1539E+01
  0.1449E+01
  0.1364E+01
  0.1287E+01
  0.1218E+01
  0.1162E+01
  0.1124E+01
  0.1119E+01
  0.1127E+01
  0.1144E+01
  0.1151E+01
  0.1146E+01
  0.1107E+01
  0.1011E+01
  0.8852E+00
  0.7644E+00
  0.6755E+00
  0.6369E+00
  0.6352E+00
  0.6460E+00
  0.6526E+00
  0.5947E+00
  0.3967E+00
  0.2557E+00
  0.2052E+00
  0.2000E+00
  0.2000E+00
  0.4189E+01
  0.4189E+01
  0.4189E+01
  0.4189E+01
  0.4189E+01
  0.4189E+01
  0.4189E+01
  0.4189E+01
  0.4189E+01
  0.4189E+01
  0.4189E+01
  0.4188E+01
  0.4186E+01
  0.4178E+01
  0.4152E+01
  0.4090E+01
  0.3976E+01
  0.3815E+01
  0.3625E+01
  0.3426E+01
  0.3228E+01
  0.3037E+01
  0.2854E+01
  0.2682E+01
  0.2520E+01
  0.2368E+01
  0.2225E+01
  0.2092E+01
  0.1966E+01
  0.1848E+01
  0.1737E+01
  0.1633E+01
  0.1534E+01
  0.1442E+01
  0.1355E+01
  0.1274E+01
  0.1200E+01
  0.1135E+01
  0.1082E+01
  0.1046E+01
  0.1040E+01
  0.1045E+01
  0.1060E+01
  0.1069E+01
  0.1066E+01
  0.1037E+01
  0.9569E+00
  0.8478E+00
  0.7395E+00
  0.6576E+00
  0.6255E+00
  0.6256E+00
  0.6399E+00
  0.6439E+00
  0.5751E+00
  0.3775E+00
  0.2477E+00
  0.2039E+00
  0.2000E+00
  0.2000E+00
  0.3977E+01
  0.3977E+01
  0.3977E+01
  0.3977E+01
  0.3977E+01
  0.3977E+01
  0.3977E+01
  0.3977E+01
  0.3977E+01
  0.3977E+01
  0.3977E+01
  0.3976E+01
  0.3975E+01
  0.3967E+01
  0.3944E+01
  0.3887E+01
  0.3781E+01
  0.3628E+01
  0.3446E+01
  0.3254E+01
  0.3063E+01
  0.2878E+01
  0.2701E+01
  0.2534E+01
  0.2377E+01
  0.2230E+01
  0.2093E+01
  0.1964E+01
  0.1843E+01
  0.1729E+01
  0.1623E+01
  0.1523E+01
  0.1429E+01
  0.1341E+01
  0.1258E+01
  0.1182E+01
  0.1112E+01
  0.1050E+01
  0.1000E+01
  0.9654E+00
  0.9590E+00
  0.9617E+00
  0.9749E+00
  0.9865E+00
  0.9869E+00
  0.9706E+00
  0.9062E+00
  0.8104E+00
  0.7120E+00
  0.6366E+00
  0.6121E+00
  0.6146E+00
  0.6325E+00
  0.6344E+00
  0.5469E+00
  0.3534E+00
  0.2384E+00
  0.2026E+00
  0.2000E+00
  0.2000E+00
  0.3748E+01
  0.3748E+01
  0.3748E+01
  0.3748E+01
  0.3748E+01
  0.3748E+01
  0.3748E+01
  0.3748E+01
  0.3748E+01
  0.3748E+01
  0.3748E+01
  0.3748E+01
  0.3746E+01
  0.3740E+01
  0.3719E+01
  0.3668E+01
  0.3571E+01
  0.3427E+01
  0.3255E+01
  0.3072E+01
  0.2889E+01
  0.2711E+01
  0.2541E+01
  0.2381E+01
  0.2231E+01
  0.2090E+01
  0.1959E+01
  0.1836E+01
  0.1720E+01
  0.1612E+01
  0.1510E+01
  0.1416E+01
  0.1327E+01
  0.1243E+01
  0.1165E+01
  0.1092E+01
  0.1026E+01
  0.9683E+00
  0.9213E+00
  0.8880E+00
  0.8800E+00
  0.8820E+00
  0.8939E+00
  0.9097E+00
  0.9163E+00
  0.9102E+00
  0.8640E+00
  0.7755E+00
  0.6830E+00
  0.6148E+00
  0.5980E+00
  0.6037E+00
  0.6249E+00
  0.6218E+00
  0.5109E+00
  0.3271E+00
  0.2286E+00
  0.2015E+00
  0.2000E+00
  0.2000E+00
  0.3520E+01
  0.3520E+01
  0.3520E+01
  0.3520E+01
  0.3520E+01
  0.3520E+01
  0.3520E+01
  0.3520E+01
  0.3520E+01
  0.3520E+01
  0.3520E+01
  0.3519E+01
  0.3518E+01
  0.3513E+01
  0.3495E+01
  0.3449E+01
  0.3361E+01
  0.3227E+01
  0.3065E+01
  0.2891E+01
  0.2717E+01
  0.2547E+01
  0.2385E+01
  0.2233E+01
  0.2089E+01
  0.1955E+01
  0.1830E+01
  0.1713E+01
  0.1603E+01
  0.1500E+01
  0.1404E+01
  0.1314E+01
  0.1230E+01
  0.1151E+01
  0.1077E+01
  0.1008E+01
  0.9462E+00
  0.8914E+00
  0.8469E+00
  0.8148E+00
  0.8059E+00
  0.8079E+00
  0.8205E+00
  0.8420E+00
  0.8606E+00
  0.8603E+00
  0.8262E+00
  0.7411E+00
  0.6520E+00
  0.5926E+00
  0.5841E+00
  0.5945E+00
  0.6164E+00
  0.6032E+00
  0.4677E+00
  0.3006E+00
  0.2194E+00
  0.2008E+00
  0.2000E+00
  0.2000E+00
  0.3300E+01
  0.3300E+01
  0.3300E+01
  0.3300E+01
  0.3300E+01
  0.3300E+01
  0.3300E+01
  0.3300E+01
  0.3300E+01
  0.3300E+01
  0.3300E+01
  0.3300E+01
  0.3299E+01
  0.3294E+01
  0.3279E+01
  0.3239E+01
  0.3159E+01
  0.3036E+01
  0.2883E+01
  0.2719E+01
  0.2553E+01
  0.2392E+01
  0.2238E+01
  0.2092E+01
  0.1955E+01
  0.1828E+01
  0.1709E+01
  0.1598E+01
  0.1493E+01
  0.1396E+01
  0.1305E+01
  0.1220E+01
  0.1140E+01
  0.1065E+01
  0.9953E+00
  0.9306E+00
  0.8718E+00
  0.8200E+00
  0.7777E+00
  0.7464E+00
  0.7388E+00
  0.7412E+00
  0.7565E+00
  0.7890E+00
  0.8224E+00
  0.8252E+00
  0.7903E+00
  0.7045E+00
  0.6191E+00
  0.5736E+00
  0.5718E+00
  0.5893E+00
  0.6082E+00
  0.5777E+00
  0.4175E+00
  0.2751E+00
  0.2118E+00
  0.2003E+00
  0.2000E+00
  0.2000E+00
  0.3092E+01
  0.3092E+01
  0.3092E+01
  0.3092E+01
  0.3092E+01
  0.3092E+01
  0.3092E+01
  0.3092E+01
  0.3092E+01
  0.3092E+01
  0.3092E+01
  0.3092E+01
  0.3091E+01
  0.3087E+01
  0.3074E+01
  0.3039E+01
  0.2968E+01
  0.2855E+01
  0.2712E+01
  0.2556E+01
  0.2399E+01
  0.2245E+01
  0.2099E+01
  0.1960E+01
  0.1830E+01
  0.1709E+01
  0.1596E+01
  0.1490E+01
  0.1391E+01
  0.1299E+01
  0.1212E+01
  0.1132E+01
  0.1056E+01
  0.9857E+00
  0.9196E+00
  0.8584E+00
  0.8030E+00
  0.7538E+00
  0.7137E+00
  0.6836E+00
  0.6787E+00
  0.6827E+00
  0.7063E+00
  0.7558E+00
  0.8017E+00
  0.8024E+00
  0.7535E+00
  0.6640E+00
  0.5862E+00
  0.5582E+00
  0.5615E+00
  0.5865E+00
  0.5972E+00
  0.5372E+00
  0.3695E+00
  0.2520E+00
  0.2062E+00
  0.2001E+00
  0.2000E+00
  0.2000E+00
  0.2896E+01
  0.2896E+01
  0.2896E+01
  0.2896E+01
  0.2896E+01
  0.2896E+01
  0.2896E+01
  0.2896E+01
  0.2896E+01
  0.2896E+01
  0.2896E+01
  0.2896E+01
  0.2895E+01
  0.2892E+01
  0.2881E+01
  0.2851E+01
  0.2787E+01
  0.2684E+01
  0.2551E+01
  0.2404E+01
  0.2254E+01
  0.2108E+01
  0.1969E+01
  0.1837E+01
  0.1713E+01
  0.1597E+01
  0.1490E+01
  0.1389E+01
  0.1296E+01
  0.1208E+01
  0.1126E+01
  0.1050E+01
  0.9788E+00
  0.9119E+00
  0.8494E+00
  0.7917E+00
  0.7393E+00
  0.6927E+00
  0.6541E+00
  0.6275E+00
  0.6254E+00
  0.6363E+00
  0.6764E+00
  0.7511E+00
  0.7923E+00
  0.7812E+00
  0.7112E+00
  0.6213E+00
  0.5570E+00
  0.5457E+00
  0.5567E+00
  0.5843E+00
  0.5815E+00
  0.4822E+00
  0.3242E+00
  0.2326E+00
  0.2028E+00
  0.2000E+00
  0.2000E+00
  0.2000E+00
  0.2711E+01
  0.2711E+01
  0.2711E+01
  0.2711E+01
  0.2711E+01
  0.2711E+01
  0.2711E+01
  0.2711E+01
  0.2711E+01
  0.2711E+01
  0.2711E+01
  0.2711E+01
  0.2711E+01
  0.2708E+01
  0.2699E+01
  0.2673E+01
  0.2617E+01
  0.2523E+01
  0.2399E+01
  0.2260E+01
  0.2118E+01
  0.1979E+01
  0.1846E+01
  0.1721E+01
  0.1603E+01
  0.1493E+01
  0.1391E+01
  0.1296E+01
  0.1207E+01
  0.1124E+01
  0.1046E+01
  0.9741E+00
  0.9066E+00
  0.8433E+00
  0.7842E+00
  0.7299E+00
  0.6801E+00
  0.6364E+00
  0.5970E+00
  0.5807E+00
  0.5834E+00
  0.6093E+00
  0.6801E+00
  0.7652E+00
  0.7803E+00
  0.7502E+00
  0.6634E+00
  0.5781E+00
  0.5356E+00
  0.5356E+00
  0.5571E+00
  0.5784E+00
  0.5532E+00
  0.4173E+00
  0.2850E+00
  0.2178E+00
  0.2011E+00
  0.2000E+00
  0.2000E+00
  0.2000E+00
  0.2537E+01
  0.2537E+01
  0.2537E+01
  0.2537E+01
  0.2537E+01
  0.2537E+01
  0.2537E+01
  0.2537E+01
  0.2537E+01
  0.2537E+01
  0.2537E+01
  0.2537E+01
  0.2537E+01
  0.2535E+01
  0.2528E+01
  0.2506E+01
  0.2456E+01
  0.2371E+01
  0.2256E+01
  0.2125E+01
  0.1991E+01
  0.1859E+01
  0.1732E+01
  0.1612E+01
  0.1500E+01
  0.1396E+01
  0.1299E+01
  0.1208E+01
  0.1124E+01
  0.1045E+01
  0.9717E+00
  0.9034E+00
  0.8396E+00
  0.7797E+00
  0.7240E+00
  0.6725E+00
  0.6256E+00
  0.5830E+00
  0.5474E+00
  0.5431E+00
  0.5594E+00
  0.6159E+00
  0.7099E+00
  0.7708E+00
  0.7653E+00
  0.7032E+00
  0.6106E+00
  0.5392E+00
  0.5219E+00
  0.5315E+00
  0.5604E+00
  0.5653E+00
  0.5021E+00
  0.3560E+00
  0.2531E+00
  0.2083E+00
  0.2003E+00
  0.2000E+00
  0.2000E+00
  0.2000E+00
  0.2374E+01
  0.2374E+01
  0.2374E+01
  0.2374E+01
  0.2374E+01
  0.2374E+01
  0.2374E+01
  0.2374E+01
  0.2374E+01
  0.2374E+01
  0.2374E+01
  0.2374E+01
  0.2374E+01
  0.2372E+01
  0.2366E+01
  0.2348E+01
  0.2304E+01
  0.2228E+01
  0.2121E+01
  0.1998E+01
  0.1871E+01
  0.1745E+01
  0.1625E+01
  0.1511E+01
  0.1404E+01
  0.1305E+01
  0.1212E+01
  0.1126E+01
  0.1046E+01
  0.9717E+00
  0.9023E+00
  0.8377E+00
  0.7773E+00
  0.7207E+00
  0.6681E+00
  0.6192E+00
  0.5745E+00
  0.5308E+00
  0.5136E+00
  0.5230E+00
  0.5674E+00
  0.6508E+00
  0.7444E+00
  0.7610E+00
  0.7306E+00
  0.6427E+00
  0.5561E+00
  0.5130E+00
  0.5134E+00
  0.5354E+00
  0.5579E+00
  0.5414E+00
  0.4312E+00
  0.3039E+00
  0.2290E+00
  0.2032E+00
  0.2001E+00
  0.2000E+00
  0.2000E+00
  0.2000E+00
  0.2220E+01
  0.2220E+01
  0.2220E+01
  0.2220E+01
  0.2220E+01
  0.2220E+01
  0.2220E+01
  0.2220E+01
  0.2220E+01
  0.2220E+01
  0.2220E+01
  0.2220E+01
  0.2220E+01
  0.2219E+01
  0.2214E+01
  0.2199E+01
  0.2161E+01
  0.2093E+01
  0.1995E+01
  0.1879E+01
  0.1759E+01
  0.1639E+01
  0.1524E+01
  0.1416E+01
  0.1314E+01
  0.1220E+01
  0.1132E+01
  0.1050E+01
  0.9741E+00
  0.9034E+00
  0.8377E+00
  0.7765E+00
  0.7193E+00
  0.6659E+00
  0.6157E+00
  0.5694E+00
  0.5238E+00
  0.4936E+00
  0.4977E+00
  0.5323E+00
  0.6046E+00
  0.7059E+00
  0.7517E+00
  0.7385E+00
  0.6659E+00
  0.5748E+00
  0.5122E+00
  0.5009E+00
  0.5134E+00
  0.5417E+00
  0.5452E+00
  0.4882E+00
  0.3604E+00
  0.2629E+00
  0.2133E+00
  0.2010E+00
  0.2000E+00
  0.2000E+00
  0.2000E+00
  0.2000E+00
  0.2076E+01
  0.2076E+01
  0.2076E+01
  0.2076E+01
  0.2076E+01
  0.2076E+01
  0.2076E+01
  0.2076E+01
  0.2076E+01
  0.2076E+01
  0.2076E+01
  0.2076E+01
  0.2076E+01
  0.2075E+01
  0.2071E+01
  0.2058E+01
  0.2026E+01
  0.1965E+01
  0.1875E+01
  0.1767E+01
  0.1653E+01
  0.1540E+01
  0.1430E+01
  0.1327E+01
  0.1230E+01
  0.1140E+01
  0.1056E+01
  0.9788E+00
  0.9066E+00
  0.8395E+00
  0.7773E+00
  0.7193E+00
  0.6652E+00
  0.6141E+00
  0.5669E+00
  0.5203E+00
  0.4818E+00
  0.4817E+00
  0.5071E+00
  0.5667E+00
  0.6632E+00
  0.7360E+00
  0.7359E+00
  0.6795E+00
  0.5873E+00
  0.5155E+00
  0.4920E+00
  0.4985E+00
  0.5243E+00
  0.5399E+00
  0.5153E+00
  0.4109E+00
  0.3027E+00
  0.2331E+00
  0.2049E+00
  0.2002E+00
  0.2000E+00
  0.2000E+00
  0.2000E+00
  0.2000E+00
  0.1940E+01
  0.1940E+01
  0.1940E+01
  0.1940E+01
  0.1940E+01
  0.1940E+01
  0.1940E+01
  0.1940E+01
  0.1940E+01
  0.1940E+01
  0.1940E+01
  0.1940E+01
  0.1940E+01
  0.1939E+01
  0.1936E+01
  0.1926E+01
  0.1899E+01
  0.1845E+01
  0.1762E+01
  0.1662E+01
  0.1554E+01
  0.1446E+01
  0.1342E+01
  0.1243E+01
  0.1151E+01
  0.1065E+01
  0.9857E+00
  0.9119E+00
  0.8433E+00
  0.7797E+00
  0.7207E+00
  0.6659E+00
  0.6141E+00
  0.5661E+00
  0.5185E+00
  0.4763E+00
  0.4728E+00
  0.4897E+00
  0.5412E+00
  0.6288E+00
  0.7156E+00
  0.7276E+00
  0.6879E+00
  0.5961E+00
  0.5195E+00
  0.4875E+00
  0.4900E+00
  0.5097E+00
  0.5288E+00
  0.5211E+00
  0.4488E+00
  0.3405E+00
  0.2590E+00
  0.2143E+00
  0.2014E+00
  0.2000E+00
  0.2000E+00
  0.2000E+00
  0.2000E+00
  0.2000E+00
  0.1812E+01
  0.1812E+01
  0.1812E+01
  0.1812E+01
  0.1812E+01
  0.1812E+01
  0.1812E+01
  0.1812E+01
  0.1812E+01
  0.1812E+01
  0.1812E+01
  0.1812E+01
  0.1812E+01
  0.1812E+01
  0.1809E+01
  0.1801E+01
  0.1778E+01
  0.1730E+01
  0.1656E+01
  0.1562E+01
  0.1460E+01
  0.1358E+01
  0.1259E+01
  0.1165E+01
  0.1077E+01
  0.9952E+00
  0.9195E+00
  0.8493E+00
  0.7842E+00
  0.7239E+00
  0.6681E+00
  0.6157E+00
  0.5669E+00
  0.5184E+00
  0.4745E+00
  0.4690E+00
  0.4810E+00
  0.5230E+00
  0.6013E+00
  0.6988E+00
  0.7222E+00
  0.6920E+00
  0.6053E+00
  0.5248E+00
  0.4871E+00
  0.4862E+00
  0.4996E+00
  0.5203E+00
  0.5200E+00
  0.4700E+00
  0.3710E+00
  0.2851E+00
  0.2288E+00
  0.2049E+00
  0.2003E+00
  0.2000E+00
  0.2000E+00
  0.2000E+00
  0.2000E+00
  0.2000E+00
  0.1693E+01
  0.1693E+01
  0.1693E+01
  0.1693E+01
  0.1693E+01
  0.1693E+01
  0.1693E+01
  0.1693E+01
  0.1693E+01
  0.1693E+01
  0.1693E+01
  0.1693E+01
  0.1693E+01
  0.1692E+01
  0.1691E+01
  0.1684E+01
  0.1664E+01
  0.1623E+01
  0.1556E+01
  0.1469E+01
  0.1373E+01
  0.1276E+01
  0.1182E+01
  0.1092E+01
  0.1008E+01
  0.9304E+00
  0.8583E+00
  0.7916E+00
  0.7298E+00
  0.6725E+00
  0.6192E+00
  0.5695E+00
  0.5200E+00
  0.4766E+00
  0.4683E+00
  0.4761E+00
  0.5108E+00
  0.5823E+00
  0.6817E+00
  0.7184E+00
  0.6988E+00
  0.6157E+00
  0.5323E+00
  0.4907E+00
  0.4864E+00
  0.4957E+00
  0.5149E+00
  0.5169E+00
  0.4813E+00
  0.3930E+00
  0.3073E+00
  0.2449E+00
  0.2112E+00
  0.2013E+00
  0.2001E+00
  0.2000E+00
  0.2000E+00
  0.2000E+00
  0.2000E+00
  0.2000E+00
  0.1583E+01
  0.1583E+01
  0.1583E+01
  0.1583E+01
  0.1583E+01
  0.1583E+01
  0.1583E+01
  0.1583E+01
  0.1583E+01
  0.1583E+01
  0.1583E+01
  0.1583E+01
  0.1583E+01
  0.1583E+01
  0.1582E+01
  0.1576E+01
  0.1560E+01
  0.1525E+01
  0.1464E+01
  0.1384E+01
  0.1294E+01
  0.1202E+01
  0.1112E+01
  0.1026E+01
  0.9461E+00
  0.8717E+00
  0.8029E+00
  0.7392E+00
  0.6801E+00
  0.6255E+00
  0.5744E+00
  0.5237E+00
  0.4825E+00
  0.4718E+00
  0.4816E+00
  0.5117E+00
  0.5672E+00
  0.6623E+00
  0.7169E+00
  0.7056E+00
  0.6295E+00
  0.5414E+00
  0.4966E+00
  0.4899E+00
  0.4967E+00
  0.5130E+00
  0.5151E+00
  0.4864E+00
  0.4066E+00
  0.3239E+00
  0.2596E+00
  0.2194E+00
  0.2033E+00
  0.2002E+00
  0.2000E+00
  0.2000E+00
  0.2000E+00
  0.2000E+00
  0.2000E+00
  0.2000E+00
  0.1486E+01
  0.1486E+01
  0.1486E+01
  0.1486E+01
  0.1486E+01
  0.1486E+01
  0.1486E+01
  0.1486E+01
  0.1486E+01
  0.1486E+01
  0.1486E+01
  0.1486E+01
  0.1486E+01
  0.1486E+01
  0.1484E+01
  0.1480E+01
  0.1467E+01
  0.1436E+01
  0.1382E+01
  0.1308E+01
  0.1223E+01
  0.1136E+01
  0.1050E+01
  0.9682E+00
  0.8913E+00
  0.8199E+00
  0.7538E+00
  0.6927E+00
  0.6363E+00
  0.5829E+00
  0.5303E+00
  0.4934E+00
  0.4808E+00
  0.4900E+00
  0.5224E+00
  0.5834E+00
  0.6666E+00
  0.7154E+00
  0.7080E+00
  0.6410E+00
  0.5516E+00
  0.5032E+00
  0.4953E+00
  0.5004E+00
  0.5138E+00
  0.5152E+00
  0.4901E+00
  0.4146E+00
  0.3347E+00
  0.2710E+00
  0.2276E+00
  0.2064E+00
  0.2007E+00
  0.2000E+00
  0.2000E+00
  0.2000E+00
  0.2000E+00
  0.2000E+00
  0.2000E+00
  0.2000E+00
  0.1405E+01
  0.1405E+01
  0.1405E+01
  0.1405E+01
  0.1405E+01
  0.1405E+01
  0.1405E+01
  0.1405E+01
  0.1405E+01
  0.1405E+01
  0.1405E+01
  0.1405E+01
  0.1405E+01
  0.1405E+01
  0.1404E+01
  0.1400E+01
  0.1390E+01
  0.1363E+01
  0.1315E+01
  0.1246E+01
  0.1166E+01
  0.1083E+01
  0.1000E+01
  0.9212E+00
  0.8468E+00
  0.7777E+00
  0.7137E+00
  0.6539E+00
  0.5970E+00
  0.5476E+00
  0.5145E+00
  0.4973E+00
  0.5075E+00
  0.5407E+00
  0.5982E+00
  0.6803E+00
  0.7204E+00
  0.7105E+00
  0.6474E+00
  0.5595E+00
  0.5091E+00
  0.5006E+00
  0.5049E+00
  0.5163E+00
  0.5169E+00
  0.4930E+00
  0.4201E+00
  0.3417E+00
  0.2788E+00
  0.2345E+00
  0.2099E+00
  0.2015E+00
  0.2001E+00
  0.2000E+00
  0.2000E+00
  0.2000E+00
  0.2000E+00
  0.2000E+00
  0.2000E+00
  0.2000E+00
  0.1343E+01
  0.1343E+01
  0.1343E+01
  0.1343E+01
  0.1343E+01
  0.1343E+01
  0.1343E+01
  0.1343E+01
  0.1343E+01
  0.1343E+01
  0.1343E+01
  0.1343E+01
  0.1343E+01
  0.1342E+01
  0.1342E+01
  0.1339E+01
  0.1330E+01
  0.1308E+01
  0.1266E+01
  0.1203E+01
  0.1127E+01
  0.1046E+01
  0.9654E+00
  0.8879E+00
  0.8147E+00
  0.7464E+00
  0.6836E+00
  0.6274E+00
  0.5806E+00
  0.5427E+00
  0.5227E+00
  0.5321E+00
  0.5679E+00
  0.6295E+00
  0.6958E+00
  0.7170E+00
  0.7058E+00
  0.6454E+00
  0.5620E+00
  0.5126E+00
  0.5048E+00
  0.5084E+00
  0.5186E+00
  0.5189E+00
  0.4946E+00
  0.4225E+00
  0.3459E+00
  0.2839E+00
  0.2395E+00
  0.2131E+00
  0.2026E+00
  0.2003E+00
  0.2000E+00
  0.2000E+00
  0.2000E+00
  0.2000E+00
  0.2000E+00
  0.2000E+00
  0.2000E+00
  0.2000E+00
  0.1328E+01
  0.1328E+01
  0.1328E+01
  0.1328E+01
  0.1328E+01
  0.1328E+01
  0.1328E+01
  0.1328E+01
  0.1328E+01
  0.1328E+01
  0.1328E+01
  0.1328E+01
  0.1328E+01
  0.1328E+01
  0.1327E+01
  0.1325E+01
  0.1318E+01
  0.1299E+01
  0.1259E+01
  0.1197E+01
  0.1122E+01
  0.1041E+01
  0.9591E+00
  0.8800E+00
  0.8059E+00
  0.7387E+00
  0.6785E+00
  0.6254E+00
  0.5829E+00
  0.5591E+00
  0.5677E+00
  0.6037E+00
  0.6646E+00
  0.7185E+00
  0.7208E+00
  0.6983E+00
  0.6287E+00
  0.5539E+00
  0.5108E+00
  0.5057E+00
  0.5108E+00
  0.5205E+00
  0.5203E+00
  0.4955E+00
  0.4233E+00
  0.3475E+00
  0.2868E+00
  0.2428E+00
  0.2156E+00
  0.2036E+00
  0.2005E+00
  0.2000E+00
  0.2000E+00
  0.2000E+00
  0.2000E+00
  0.2000E+00
  0.2000E+00
  0.2000E+00
  0.2000E+00
  0.2000E+00
  0.1329E+01
  0.1329E+01
  0.1329E+01
  0.1329E+01
  0.1329E+01
  0.1329E+01
  0.1329E+01
  0.1329E+01
  0.1329E+01
  0.1329E+01
  0.1329E+01
  0.1329E+01
  0.1329E+01
  0.1329E+01
  0.1329E+01
  0.1327E+01
  0.1321E+01
  0.1303E+01
  0.1266E+01
  0.1205E+01
  0.1129E+01
  0.1045E+01
  0.9618E+00
  0.8819E+00
  0.8079E+00
  0.7411E+00
  0.6826E+00
  0.6362E+00
  0.6092E+00
  0.6165E+00
  0.6515E+00
  0.7037E+00
  0.7356E+00
  0.7293E+00
  0.6932E+00
  0.6149E+00
  0.5420E+00
  0.5037E+00
  0.5011E+00
  0.5086E+00
  0.5211E+00
  0.5215E+00
  0.4959E+00
  0.4235E+00
  0.3482E+00
  0.2882E+00
  0.2448E+00
  0.2174E+00
  0.2045E+00
  0.2007E+00
  0.2001E+00
  0.2000E+00
  0.2000E+00
  0.2000E+00
  0.2000E+00
  0.2000E+00
  0.2000E+00
  0.2000E+00
  0.2000E+00
  0.2000E+00
  0.1336E+01
  0.1336E+01
  0.1336E+01
  0.1336E+01
  0.1336E+01
  0.1336E+01
  0.1336E+01
  0.1336E+01
  0.1336E+01
  0.1336E+01
  0.1336E+01
  0.1336E+01
  0.1336E+01
  0.1336E+01
  0.1335E+01
  0.1334E+01
  0.1329E+01
  0.1313E+01
  0.1279E+01
  0.1221E+01
  0.1145E+01
  0.1060E+01
  0.9750E+00
  0.8940E+00
  0.8204E+00
  0.7566E+00
  0.7062E+00
  0.6764E+00
  0.6808E+00
  0.7092E+00
  0.7442E+00
  0.7512E+00
  0.7361E+00
  0.6870E+00
  0.6051E+00
  0.5316E+00
  0.4963E+00
  0.4956E+00
  0.5041E+00
  0.5188E+00
  0.5210E+00
  0.4966E+00
  0.4241E+00
  0.3484E+00
  0.2887E+00
  0.2459E+00
  0.2185E+00
  0.2051E+00
  0.2009E+00
  0.2001E+00
  0.2000E+00
  0.2000E+00
  0.2000E+00
  0.2000E+00
  0.2000E+00
  0.2000E+00
  0.2000E+00
  0.2000E+00
  0.2000E+00
  0.2000E+00
  0.1341E+01
  0.1341E+01
  0.1341E+01
  0.1341E+01
  0.1341E+01
  0.1341E+01
  0.1341E+01
  0.1341E+01
  0.1341E+01
  0.1341E+01
  0.1341E+01
  0.1341E+01
  0.1341E+01
  0.1341E+01
  0.1340E+01
  0.1339E+01
  0.1334E+01
  0.1319E+01
  0.1285E+01
  0.1228E+01
  0.1152E+01
  0.1069E+01
  0.9866E+00
  0.9095E+00
  0.8420E+00
  0.7889E+00
  0.7557E+00
  0.7513E+00
  0.7643E+00
  0.7712E+00
  0.7615E+00
  0.7391E+00
  0.6792E+00
  0.5971E+00
  0.5245E+00
  0.4903E+00
  0.4903E+00
  0.5000E+00
  0.5159E+00
  0.5191E+00
  0.4954E+00
  0.4240E+00
  0.3487E+00
  0.2888E+00
  0.2461E+00
  0.2191E+00
  0.2056E+00
  0.2010E+00
  0.2001E+00
  0.2000E+00
  0.2000E+00
  0.2000E+00
  0.2000E+00
  0.2000E+00
  0.2000E+00
  0.2000E+00
  0.2000E+00
  0.2000E+00
  0.2000E+00
  0.2000E+00
  0.1336E+01
  0.1336E+01
  0.1336E+01
  0.1336E+01
  0.1336E+01
  0.1336E+01
  0.1336E+01
  0.1336E+01
  0.1336E+01
  0.1336E+01
  0.1336E+01
  0.1336E+01
  0.1336E+01
  0.1336E+01
  0.1335E+01
  0.1334E+01
  0.1329E+01
  0.1313E+01
  0.1279E+01
  0.1223E+01
  0.1148E+01
  0.1066E+01
  0.9869E+00
  0.9164E+00
  0.8605E+00
  0.8223E+00
  0.8017E+00
  0.7920E+00
  0.7807E+00
  0.7658E+00
  0.7303E+00
  0.6656E+00
  0.5876E+00
  0.5198E+00
  0.4871E+00
  0.4868E+00
  0.4966E+00
  0.5137E+00
  0.5172E+00
  0.4939E+00
  0.4233E+00
  0.3485E+00
  0.2888E+00
  0.2462E+00
  0.2192E+00
  0.2058E+00
  0.2011E+00
  0.2001E+00
  0.2000E+00
  0.2000E+00
  0.2000E+00
  0.2000E+00
  0.2000E+00
  0.2000E+00
  0.2000E+00
  0.2000E+00
  0.2000E+00
  0.2000E+00
  0.2000E+00
  0.2000E+00
  0.1291E+01
  0.1291E+01
  0.1291E+01
  0.1291E+01
  0.1291E+01
  0.1291E+01
  0.1291E+01
  0.1291E+01
  0.1291E+01
  0.1291E+01
  0.1291E+01
  0.1291E+01
  0.1291E+01
  0.1291E+01
  0.1290E+01
  0.1288E+01
  0.1282E+01
  0.1266E+01
  0.1232E+01
  0.1178E+01
  0.1110E+01
  0.1038E+01
  0.9706E+00
  0.9101E+00
  0.8601E+00
  0.8251E+00
  0.8022E+00
  0.7811E+00
  0.7498E+00
  0.7029E+00
  0.6428E+00
  0.5743E+00
  0.5153E+00
  0.4874E+00
  0.4862E+00
  0.4957E+00
  0.5126E+00
  0.5155E+00
  0.4925E+00
  0.4220E+00
  0.3476E+00
  0.2883E+00
  0.2459E+00
  0.2191E+00
  0.2058E+00
  0.2012E+00
  0.2002E+00
  0.2000E+00
  0.2000E+00
  0.2000E+00
  0.2000E+00
  0.2000E+00
  0.2000E+00
  0.2000E+00
  0.2000E+00
  0.2000E+00
  0.2000E+00
  0.2000E+00
  0.2000E+00
  0.2000E+00
  0.1178E+01
  0.1178E+01
  0.1178E+01
  0.1178E+01
  0.1178E+01
  0.1178E+01
  0.1178E+01
  0.1178E+01
  0.1178E+01
  0.1178E+01
  0.1178E+01
  0.1178E+01
  0.1178E+01
  0.1178E+01
  0.1177E+01
  0.1174E+01
  0.1166E+01
  0.1149E+01
  0.1117E+01
  0.1070E+01
  0.1015E+01
  0.9577E+00
  0.9063E+00
  0.8639E+00
  0.8261E+00
  0.7902E+00
  0.7534E+00
  0.7110E+00
  0.6632E+00
  0.6104E+00
  0.5564E+00
  0.5124E+00
  0.4927E+00
  0.4895E+00
  0.4995E+00
  0.5150E+00
  0.5151E+00
  0.4902E+00
  0.4198E+00
  0.3457E+00
  0.2869E+00
  0.2449E+00
  0.2185E+00
  0.2056E+00
  0.2011E+00
  0.2002E+00
  0.2000E+00
  0.2000E+00
  0.2000E+00
  0.2000E+00
  0.2000E+00
  0.2000E+00
  0.2000E+00
  0.2000E+00
  0.2000E+00
  0.2000E+00
  0.2000E+00
  0.2000E+00
  0.2000E+00
  0.2000E+00
  0.1028E+01
  0.1028E+01
  0.1028E+01
  0.1028E+01
  0.1028E+01
  0.1028E+01
  0.1028E+01
  0.1028E+01
  0.1028E+01
  0.1028E+01
  0.1028E+01
  0.1028E+01
  0.1028E+01
  0.1027E+01
  0.1026E+01
  0.1023E+01
  0.1014E+01
  0.9964E+00
  0.9682E+00
  0.9313E+00
  0.8901E+00
  0.8491E+00
  0.8107E+00
  0.7755E+00
  0.7409E+00
  0.7043E+00
  0.6640E+00
  0.6211E+00
  0.5783E+00
  0.5391E+00
  0.5128E+00
  0.5019E+00
  0.4990E+00
  0.5087E+00
  0.5207E+00
  0.5172E+00
  0.4869E+00
  0.4153E+00
  0.3419E+00
  0.2840E+00
  0.2429E+00
  0.2174E+00
  0.2051E+00
  0.2010E+00
  0.2001E+00
  0.2000E+00
  0.2000E+00
  0.2000E+00
  0.2000E+00
  0.2000E+00
  0.2000E+00
  0.2000E+00
  0.2000E+00
  0.2000E+00
  0.2000E+00
  0.2000E+00
  0.2000E+00
  0.2000E+00
  0.2000E+00
  0.2000E+00
  0.8822E+00
  0.8822E+00
  0.8822E+00
  0.8822E+00
  0.8822E+00
  0.8822E+00
  0.8822E+00
  0.8822E+00
  0.8822E+00
  0.8822E+00
  0.8822E+00
  0.8822E+00
  0.8821E+00
  0.8816E+00
  0.8801E+00
  0.8759E+00
  0.8665E+00
  0.8499E+00
  0.8266E+00
  0.7994E+00
  0.7706E+00
  0.7415E+00
  0.7124E+00
  0.6830E+00
  0.6517E+00
  0.6190E+00
  0.5861E+00
  0.5570E+00
  0.5355E+00
  0.5219E+00
  0.5129E+00
  0.5143E+00
  0.5237E+00
  0.5297E+00
  0.5206E+00
  0.4814E+00
  0.4071E+00
  0.3351E+00
  0.2791E+00
  0.2396E+00
  0.2157E+00
  0.2045E+00
  0.2009E+00
  0.2001E+00
  0.2000E+00
  0.2000E+00
  0.2000E+00
  0.2000E+00
  0.2000E+00
  0.2000E+00
  0.2000E+00
  0.2000E+00
  0.2000E+00
  0.2000E+00
  0.2000E+00
  0.2000E+00
  0.2000E+00
  0.2000E+00
  0.2000E+00
  0.2000E+00
  0.7748E+00
  0.7748E+00
  0.7748E+00
  0.7748E+00
  0.7748E+00
  0.7748E+00
  0.7748E+00
  0.7748E+00
  0.7748E+00
  0.7748E+00
  0.7748E+00
  0.7748E+00
  0.7747E+00
  0.7742E+00
  0.7724E+00
  0.7678E+00
  0.7584E+00
  0.7435E+00
  0.7248E+00
  0.7045E+00
  0.6827E+00
  0.6601E+00
  0.6372E+00
  0.6149E+00
  0.5925E+00
  0.5736E+00
  0.5581E+00
  0.5459E+00
  0.5356E+00
  0.5312E+00
  0.5351E+00
  0.5421E+00
  0.5395E+00
  0.5223E+00
  0.4699E+00
  0.3933E+00
  0.3239E+00
  0.2711E+00
  0.2346E+00
  0.2131E+00
  0.2036E+00
  0.2007E+00
  0.2001E+00
  0.2000E+00
  0.2000E+00
  0.2000E+00
  0.2000E+00
  0.2000E+00
  0.2000E+00
  0.2000E+00
  0.2000E+00
  0.2000E+00
  0.2000E+00
  0.2000E+00
  0.2000E+00
  0.2000E+00
  0.2000E+00
  0.2000E+00
  0.2000E+00
  0.2000E+00
  0.7223E+00
  0.7223E+00
  0.7223E+00
  0.7223E+00
  0.7223E+00
  0.7223E+00
  0.7223E+00
  0.7223E+00
  0.7223E+00
  0.7223E+00
  0.7223E+00
  0.7222E+00
  0.7221E+00
  0.7215E+00
  0.7195E+00
  0.7147E+00
  0.7055E+00
  0.6924E+00
  0.6769E+00
  0.6607E+00
  0.6447E+00
  0.6285E+00
  0.6129E+00
  0.5982E+00
  0.5842E+00
  0.5719E+00
  0.5616E+00
  0.5565E+00
  0.5578E+00
  0.5598E+00
  0.5574E+00
  0.5463E+00
  0.5153E+00
  0.4481E+00
  0.3715E+00
  0.3073E+00
  0.2596E+00
  0.2276E+00
  0.2099E+00
  0.2026E+00
  0.2005E+00
  0.2001E+00
  0.2000E+00
  0.2000E+00
  0.2000E+00
  0.2000E+00
  0.2000E+00
  0.2000E+00
  0.2000E+00
  0.2000E+00
  0.2000E+00
  0.2000E+00
  0.2000E+00
  0.2000E+00
  0.2000E+00
  0.2000E+00
  0.2000E+00
  0.2000E+00
  0.2000E+00
  0.2000E+00
  0.7142E+00
  0.7142E+00
  0.7142E+00
  0.7142E+00
  0.7142E+00
  0.7142E+00
  0.7142E+00
  0.7142E+00
  0.7142E+00
  0.7142E+00
  0.7141E+00
  0.7141E+00
  0.7140E+00
  0.7133E+00
  0.7112E+00
  0.7064E+00
  0.6977E+00
  0.6857E+00
  0.6720E+00
  0.6576E+00
  0.6430E+00
  0.6286E+00
  0.6156E+00
  0.6040E+00
  0.5945E+00
  0.5894E+00
  0.5865E+00
  0.5841E+00
  0.5787E+00
  0.5655E+00
  0.5410E+00
  0.4880E+00
  0.4109E+00
  0.3403E+00
  0.2850E+00
  0.2449E+00
  0.2194E+00
  0.2064E+00
  0.2015E+00
  0.2003E+00
  0.2000E+00
  0.2000E+00
  0.2000E+00
  0.2000E+00
  0.2000E+00
  0.2000E+00
  0.2000E+00
  0.2000E+00
  0.2000E+00
  0.2000E+00
  0.2000E+00
  0.2000E+00
  0.2000E+00
  0.2000E+00
  0.2000E+00
  0.2000E+00
  0.2000E+00
  0.2000E+00
  0.2000E+00
  0.2000E+00
  0.7160E+00
  0.7160E+00
  0.7160E+00
  0.7160E+00
  0.7160E+00
  0.7160E+00
  0.7160E+00
  0.7160E+00
  0.7160E+00
  0.7160E+00
  0.7160E+00
  0.7160E+00
  0.7158E+00
  0.7151E+00
  0.7131E+00
  0.7084E+00
  0.7004E+00
  0.6896E+00
  0.6773E+00
  0.6652E+00
  0.6536E+00
  0.6431E+00
  0.6336E+00
  0.6251E+00
  0.6165E+00
  0.6082E+00
  0.5969E+00
  0.5814E+00
  0.5535E+00
  0.5019E+00
  0.4306E+00
  0.3603E+00
  0.3024E+00
  0.2589E+00
  0.2287E+00
  0.2112E+00
  0.2033E+00
  0.2007E+00
  0.2001E+00
  0.2000E+00
  0.2000E+00
  0.2000E+00
  0.2000E+00
  0.2000E+00
  0.2000E+00
  0.2000E+00
  0.2000E+00
  0.2000E+00
  0.2000E+00
  0.2000E+00
  0.2000E+00
  0.2000E+00
  0.2000E+00
  0.2000E+00
  0.2000E+00
  0.2000E+00
  0.2000E+00
  0.2000E+00
  0.2000E+00
  0.2000E+00
  0.7183E+00
  0.7183E+00
  0.7183E+00
  0.7183E+00
  0.7183E+00
  0.7183E+00
  0.7183E+00
  0.7183E+00
  0.7183E+00
  0.7183E+00
  0.7183E+00
  0.7183E+00
  0.7182E+00
  0.7175E+00
  0.7157E+00
  0.7116E+00
  0.7046E+00
  0.6952E+00
  0.6843E+00
  0.6724E+00
  0.6598E+00
  0.6471E+00
  0.6354E+00
  0.6220E+00
  0.6032E+00
  0.5774E+00
  0.5374E+00
  0.4818E+00
  0.4170E+00
  0.3560E+00
  0.3037E+00
  0.2628E+00
  0.2330E+00
  0.2143E+00
  0.2049E+00
  0.2013E+00
  0.2002E+00
  0.2000E+00
  0.2000E+00
  0.2000E+00
  0.2000E+00
  0.2000E+00
  0.2000E+00
  0.2000E+00
  0.2000E+00
  0.2000E+00
  0.2000E+00
  0.2000E+00
  0.2000E+00
  0.2000E+00
  0.2000E+00
  0.2000E+00
  0.2000E+00
  0.2000E+00
  0.2000E+00
  0.2000E+00
  0.2000E+00
  0.2000E+00
  0.2000E+00
  0.2000E+00
  0.6731E+00
  0.6731E+00
  0.6731E+00
  0.6731E+00