# vtk DataFile Version 3.0
vtk output
ASCII
DATASET RECTILINEAR_GRID
DIMENSIONS          61          61 1
X_COORDINATES    61 double
  0.0000E+00
  0.1667E+00
  0.3333E+00
  0.5000E+00
  0.6667E+00
  0.8333E+00
  0.1000E+01
  0.1167E+01
  0.1333E+01
  0.1500E+01
  0.1667E+01
  0.1833E+01
  0.2000E+01
  0.2167E+01
  0.2333E+01
  0.2500E+01
  0.2667E+01
  0.2833E+01
  0.3000E+01
  0.3167E+01
  0.3333E+01
  0.3500E+01
  0.3667E+01
  0.3833E+01
  0.4000E+01
  0.4167E+01
  0.4333E+01
  0.4500E+01
  0.4667E+01
  0.4833E+01
  0.5000E+01
  0.5167E+01
  0.5333E+01
  0.5500E+01
  0.5667E+01
  0.5833E+01
  0.6000E+01
  0.6167E+01
  0.6333E+01
  0.6500E+01
  0.6667E+01
  0.6833E+01
  0.7000E+01
  0.7167E+01
  0.7333E+01
  0.7500E+01
  0.7667E+01
  0.7833E+01
  0.8000E+01
  0.8167E+01
  0.8333E+01
  0.8500E+01
  0.8667E+01
  0.8833E+01
  0.9000E+01
  0.9167E+01
  0.9333E+01
  0.9500E+01
  0.9667E+01
  0.9833E+01
  0.1000E+02
Y_COORDINATES    61 double
  0.0000E+00
  0.1667E+00
  0.3333E+00
  0.5000E+00
  0.6667E+00
  0.8333E+00
  0.1000E+01
  0.1167E+01
  0.1333E+01
  0.1500E+01
  0.1667E+01
  0.1833E+01
  0.2000E+01
  0.2167E+01
  0.2333E+01
  0.2500E+01
  0.2667E+01
  0.2833E+01
  0.3000E+01
  0.3167E+01
  0.3333E+01
  0.3500E+01
  0.3667E+01
  0.3833E+01
  0.4000E+01
  0.4167E+01
  0.4333E+01
  0.4500E+01
  0.4667E+01
  0.4833E+01
  0.5000E+01
  0.5167E+01
  0.5333E+01
  0.5500E+01
  0.5667E+01
  0.5833E+01
  0.6000E+01
  0.6167E+01
  0.6333E+01
  0.6500E+01
  0.6667E+01
  0.6833E+01
  0.7000E+01
  0.7167E+01
  0.7333E+01
  0.7500E+01
  0.7667E+01
  0.7833E+01
  0.8000E+01
  0.8167E+01
  0.8333E+01
  0.8500E+01
  0.8667E+01
  0.8833E+01
  0.9000E+01
  0.9167E+01
  0.9333E+01
  0.9500E+01
  0.9667E+01
  0.9833E+01
  0.1000E+02
Z_COORDINATES 1 double
0
CELL_DATA                 3600
FIELD FieldData 4
density 1                 3600 double
  0.5994E+01
  0.5994E+01
  0.5994E+01
  0.5994E+01
  0.5994E+01
  0.5994E+01
  0.5994E+01
  0.5994E+01
  0.5994E+01
  0.5994E+01
  0.5994E+01
  0.5994E+01
  0.5994E+01
  0.5994E+01
  0.5994E+01
  0.5994E+01
  0.5994E+01
  0.5994E+01
  0.5989E+01
  0.5968E+01
  0.5891E+01
  0.5698E+01
  0.5363E+01
  0.4931E+01
  0.4469E+01
  0.4022E+01
  0.3613E+01
  0.3247E+01
  0.2919E+01
  0.2620E+01
  0.2348E+01
  0.2107E+01
  0.1899E+01
  0.1726E+01
  0.1586E+01
  0.1461E+01
  0.1359E+01
  0.1296E+01
  0.1234E+01
  0.1114E+01
  0.9479E+00
  0.8086E+00
  0.7535E+00
  0.7259E+00
  0.6132E+00
  0.3945E+00
  0.2505E+00
  0.2037E+00
  0.2000E+00
  0.2000E+00
  0.2000E+00
  0.2000E+00
  0.2000E+00
  0.2000E+00
  0.2000E+00
  0.2000E+00
  0.2000E+00
  0.2000E+00
  0.2000E+00
  0.2000E+00
  0.5974E+01
  0.5974E+01
  0.5974E+01
  0.5974E+01
  0.5974E+01
  0.5974E+01
  0.5974E+01
  0.5974E+01
  0.5974E+01
  0.5974E+01
  0.5974E+01
  0.5974E+01
  0.5974E+01
  0.5974E+01
  0.5974E+01
  0.5974E+01
  0.5973E+01
  0.5973E+01
  0.5969E+01
  0.5947E+01
  0.5871E+01
  0.5680E+01
  0.5346E+01
  0.4916E+01
  0.4457E+01
  0.4013E+01
  0.3605E+01
  0.3241E+01
  0.2914E+01
  0.2617E+01
  0.2346E+01
  0.2105E+01
  0.1898E+01
  0.1725E+01
  0.1586E+01
  0.1460E+01
  0.1358E+01
  0.1296E+01
  0.1233E+01
  0.1114E+01
  0.9472E+00
  0.8077E+00
  0.7525E+00
  0.7248E+00
  0.6121E+00
  0.3939E+00
  0.2503E+00
  0.2037E+00
  0.2000E+00
  0.2000E+00
  0.2000E+00
  0.2000E+00
  0.2000E+00
  0.2000E+00
  0.2000E+00
  0.2000E+00
  0.2000E+00
  0.2000E+00
  0.2000E+00
  0.2000E+00
  0.5896E+01
  0.5896E+01
  0.5896E+01
  0.5896E+01
  0.5896E+01
  0.5896E+01
  0.5896E+01
  0.5896E+01
  0.5896E+01
  0.5896E+01
  0.5896E+01
  0.5896E+01
  0.5896E+01
  0.5896E+01
  0.5896E+01
  0.5896E+01
  0.5896E+01
  0.5896E+01
  0.5892E+01
  0.5871E+01
  0.5796E+01
  0.5609E+01
  0.5283E+01
  0.4860E+01
  0.4410E+01
  0.3973E+01
  0.3573E+01
  0.3214E+01
  0.2893E+01
  0.2600E+01
  0.2333E+01
  0.2095E+01
  0.1891E+01
  0.1720E+01
  0.1582E+01
  0.1457E+01
  0.1356E+01
  0.1294E+01
  0.1231E+01
  0.1111E+01
  0.9439E+00
  0.8040E+00
  0.7483E+00
  0.7204E+00
  0.6080E+00
  0.3918E+00
  0.2497E+00
  0.2036E+00
  0.2000E+00
  0.2000E+00
  0.2000E+00
  0.2000E+00
  0.2000E+00
  0.2000E+00
  0.2000E+00
  0.2000E+00
  0.2000E+00
  0.2000E+00
  0.2000E+00
  0.2000E+00
  0.5703E+01
  0.5703E+01
  0.5703E+01
  0.5703E+01
  0.5703E+01
  0.5703E+01
  0.5703E+01
  0.5703E+01
  0.5703E+01
  0.5703E+01
  0.5703E+01
  0.5703E+01
  0.5703E+01
  0.5703E+01
  0.5703E+01
  0.5703E+01
  0.5703E+01
  0.5703E+01
  0.5699E+01
  0.5680E+01
  0.5609E+01
  0.5432E+01
  0.5119E+01
  0.4715E+01
  0.4282E+01
  0.3863E+01
  0.3480E+01
  0.3136E+01
  0.2828E+01
  0.2547E+01
  0.2290E+01
  0.2061E+01
  0.1864E+01
  0.1699E+01
  0.1565E+01
  0.1445E+01
  0.1345E+01
  0.1284E+01
  0.1221E+01
  0.1100E+01
  0.9326E+00
  0.7924E+00
  0.7368E+00
  0.7091E+00
  0.5981E+00
  0.3868E+00
  0.2484E+00
  0.2034E+00
  0.2000E+00
  0.2000E+00
  0.2000E+00
  0.2000E+00
  0.2000E+00
  0.2000E+00
  0.2000E+00
  0.2000E+00
  0.2000E+00
  0.2000E+00
  0.2000E+00
  0.2000E+00
  0.5367E+01
  0.5367E+01
  0.5367E+01
  0.5367E+01
  0.5367E+01
  0.5367E+01
  0.5367E+01
  0.5367E+01
  0.5367E+01
  0.5367E+01
  0.5367E+01
  0.5367E+01
  0.5367E+01
  0.5367E+01
  0.5367E+01
  0.5367E+01
  0.5367E+01
  0.5367E+01
  0.5364E+01
  0.5346E+01
  0.5283E+01
  0.5119E+01
  0.4829E+01
  0.4451E+01
  0.4046E+01
  0.3655E+01
  0.3296E+01
  0.2976E+01
  0.2690E+01
  0.2428E+01
  0.2189E+01
  0.1977E+01
  0.1793E+01
  0.1641E+01
  0.1517E+01
  0.1405E+01
  0.1311E+01
  0.1253E+01
  0.1191E+01
  0.1071E+01
  0.9052E+00
  0.7685E+00
  0.7159E+00
  0.6899E+00
  0.5820E+00
  0.3783E+00
  0.2457E+00
  0.2030E+00
  0.2000E+00
  0.2000E+00
  0.2000E+00
  0.2000E+00
  0.2000E+00
  0.2000E+00
  0.2000E+00
  0.2000E+00
  0.2000E+00
  0.2000E+00
  0.2000E+00
  0.2000E+00
  0.4934E+01
  0.4934E+01
  0.4934E+01
  0.4934E+01
  0.4934E+01
  0.4934E+01
  0.4934E+01
  0.4934E+01
  0.4934E+01
  0.4934E+01
  0.4934E+01
  0.4934E+01
  0.4934E+01
  0.4934E+01
  0.4934E+01
  0.4934E+01
  0.4934E+01
  0.4934E+01
  0.4931E+01
  0.4916E+01
  0.4860E+01
  0.4715E+01
  0.4451E+01
  0.4103E+01
  0.3730E+01
  0.3368E+01
  0.3038E+01
  0.2744E+01
  0.2482E+01
  0.2243E+01
  0.2026E+01
  0.1833E+01
  0.1668E+01
  0.1532E+01
  0.1422E+01
  0.1321E+01
  0.1236E+01
  0.1183E+01
  0.1125E+01
  0.1012E+01
  0.8581E+00
  0.7342E+00
  0.6897E+00
  0.6659E+00
  0.5601E+00
  0.3654E+00
  0.2414E+00
  0.2025E+00
  0.2000E+00
  0.2000E+00
  0.2000E+00
  0.2000E+00
  0.2000E+00
  0.2000E+00
  0.2000E+00
  0.2000E+00
  0.2000E+00
  0.2000E+00
  0.2000E+00
  0.2000E+00
  0.4472E+01
  0.4472E+01
  0.4472E+01
  0.4472E+01
  0.4472E+01
  0.4472E+01
  0.4472E+01
  0.4472E+01
  0.4472E+01
  0.4472E+01
  0.4472E+01
  0.4472E+01
  0.4472E+01
  0.4472E+01
  0.4472E+01
  0.4472E+01
  0.4472E+01
  0.4472E+01
  0.4470E+01
  0.4457E+01
  0.4410E+01
  0.4282E+01
  0.4046E+01
  0.3730E+01
  0.3387E+01
  0.3054E+01
  0.2750E+01
  0.2481E+01
  0.2241E+01
  0.2024E+01
  0.1827E+01
  0.1653E+01
  0.1505E+01
  0.1384E+01
  0.1286E+01
  0.1196E+01
  0.1121E+01
  0.1076E+01
  0.1026E+01
  0.9301E+00
  0.7986E+00
  0.6960E+00
  0.6632E+00
  0.6408E+00
  0.5325E+00
  0.3479E+00
  0.2352E+00
  0.2018E+00
  0.2000E+00
  0.2000E+00
  0.2000E+00
  0.2000E+00
  0.2000E+00
  0.2000E+00
  0.2000E+00
  0.2000E+00
  0.2000E+00
  0.2000E+00
  0.2000E+00
  0.2000E+00
  0.4025E+01
  0.4025E+01
  0.4025E+01
  0.4025E+01
  0.4025E+01
  0.4025E+01
  0.4025E+01
  0.4025E+01
  0.4025E+01
  0.4025E+01
  0.4025E+01
  0.4025E+01
  0.4025E+01
  0.4025E+01
  0.4025E+01
  0.4025E+01
  0.4025E+01
  0.4024E+01
  0.4023E+01
  0.4013E+01
  0.3973E+01
  0.3863E+01
  0.3654E+01
  0.3368E+01
  0.3054E+01
  0.2748E+01
  0.2468E+01
  0.2221E+01
  0.2001E+01
  0.1803E+01
  0.1624E+01
  0.1467E+01
  0.1333E+01
  0.1224E+01
  0.1136E+01
  0.1054E+01
  0.9872E+00
  0.9520E+00
  0.9175E+00
  0.8446E+00
  0.7395E+00
  0.6592E+00
  0.6382E+00
  0.6153E+00
  0.4983E+00
  0.3265E+00
  0.2276E+00
  0.2012E+00
  0.2000E+00
  0.2000E+00
  0.2000E+00
  0.2000E+00
  0.2000E+00
  0.2000E+00
  0.2000E+00
  0.2000E+00
  0.2000E+00
  0.2000E+00
  0.2000E+00
  0.2000E+00
  0.3615E+01
  0.3615E+01
  0.3615E+01
  0.3615E+01
  0.3615E+01
  0.3615E+01
  0.3615E+01
  0.3615E+01
  0.3615E+01
  0.3615E+01
  0.3615E+01
  0.3615E+01
  0.3615E+01
  0.3615E+01
  0.3615E+01
  0.3615E+01
  0.3615E+01
  0.3615E+01
  0.3613E+01
  0.3605E+01
  0.3573E+01
  0.3479E+01
  0.3296E+01
  0.3037E+01
  0.2750E+01
  0.2468E+01
  0.2211E+01
  0.1983E+01
  0.1781E+01
  0.1598E+01
  0.1434E+01
  0.1291E+01
  0.1170E+01
  0.1070E+01
  0.9894E+00
  0.9141E+00
  0.8578E+00
  0.8339E+00
  0.8192E+00
  0.7727E+00
  0.6896E+00
  0.6282E+00
  0.6153E+00
  0.5886E+00
  0.4568E+00
  0.3023E+00
  0.2194E+00
  0.2007E+00
  0.2000E+00
  0.2000E+00
  0.2000E+00
  0.2000E+00
  0.2000E+00
  0.2000E+00
  0.2000E+00
  0.2000E+00
  0.2000E+00
  0.2000E+00
  0.2000E+00
  0.2000E+00
  0.3248E+01
  0.3248E+01
  0.3248E+01
  0.3248E+01
  0.3248E+01
  0.3248E+01
  0.3248E+01
  0.3248E+01
  0.3248E+01
  0.3248E+01
  0.3248E+01
  0.3248E+01
  0.3248E+01
  0.3248E+01
  0.3248E+01
  0.3248E+01
  0.3248E+01
  0.3248E+01
  0.3247E+01
  0.3241E+01
  0.3214E+01
  0.3136E+01
  0.2976E+01
  0.2743E+01
  0.2480E+01
  0.2220E+01
  0.1982E+01
  0.1772E+01
  0.1586E+01
  0.1419E+01
  0.1268E+01
  0.1138E+01
  0.1027E+01
  0.9359E+00
  0.8608E+00
  0.7921E+00
  0.7462E+00
  0.7426E+00
  0.7471E+00
  0.7219E+00
  0.6446E+00
  0.5995E+00
  0.5911E+00
  0.5511E+00
  0.4108E+00
  0.2770E+00
  0.2120E+00
  0.2003E+00
  0.2000E+00
  0.2000E+00
  0.2000E+00
  0.2000E+00
  0.2000E+00
  0.2000E+00
  0.2000E+00
  0.2000E+00
  0.2000E+00
  0.2000E+00
  0.2000E+00
  0.2000E+00
  0.2920E+01
  0.2920E+01
  0.2920E+01
  0.2920E+01
  0.2920E+01
  0.2920E+01
  0.2920E+01
  0.2920E+01
  0.2920E+01
  0.2920E+01
  0.2920E+01
  0.2920E+01
  0.2920E+01
  0.2920E+01
  0.2920E+01
  0.2920E+01
  0.2920E+01
  0.2920E+01
  0.2919E+01
  0.2914E+01
  0.2893E+01
  0.2828E+01
  0.2689E+01
  0.2481E+01
  0.2241E+01
  0.2001E+01
  0.1780E+01
  0.1586E+01
  0.1415E+01
  0.1260E+01
  0.1122E+01
  0.1003E+01
  0.9008E+00
  0.8175E+00
  0.7476E+00
  0.6831E+00
  0.6668E+00
  0.6828E+00
  0.7035E+00
  0.6733E+00
  0.6008E+00
  0.5768E+00
  0.5682E+00
  0.5040E+00
  0.3625E+00
  0.2525E+00
  0.2063E+00
  0.2001E+00
  0.2000E+00
  0.2000E+00
  0.2000E+00
  0.2000E+00
  0.2000E+00
  0.2000E+00
  0.2000E+00
  0.2000E+00
  0.2000E+00
  0.2000E+00
  0.2000E+00
  0.2000E+00
  0.2621E+01
  0.2621E+01
  0.2621E+01
  0.2621E+01
  0.2621E+01
  0.2621E+01
  0.2621E+01
  0.2621E+01
  0.2621E+01
  0.2621E+01
  0.2621E+01
  0.2621E+01
  0.2621E+01
  0.2621E+01
  0.2621E+01
  0.2621E+01
  0.2621E+01
  0.2621E+01
  0.2620E+01
  0.2617E+01
  0.2600E+01
  0.2547E+01
  0.2428E+01
  0.2243E+01
  0.2024E+01
  0.1802E+01
  0.1598E+01
  0.1419E+01
  0.1260E+01
  0.1118E+01
  0.9914E+00
  0.8823E+00
  0.7889E+00
  0.7141E+00
  0.6461E+00
  0.6056E+00
  0.6141E+00
  0.6669E+00
  0.6734E+00
  0.6159E+00
  0.5599E+00
  0.5549E+00
  0.5395E+00
  0.4460E+00
  0.3162E+00
  0.2313E+00
  0.2027E+00
  0.2000E+00
  0.2000E+00
  0.2000E+00
  0.2000E+00
  0.2000E+00
  0.2000E+00
  0.2000E+00
  0.2000E+00
  0.2000E+00
  0.2000E+00
  0.2000E+00
  0.2000E+00
  0.2000E+00
  0.2349E+01
  0.2349E+01
  0.2349E+01
  0.2349E+01
  0.2349E+01
  0.2349E+01
  0.2349E+01
  0.2349E+01
  0.2349E+01
  0.2349E+01
  0.2349E+01
  0.2349E+01
  0.2349E+01
  0.2349E+01
  0.2349E+01
  0.2349E+01
  0.2349E+01
  0.2349E+01
  0.2348E+01
  0.2346E+01
  0.2333E+01
  0.2290E+01
  0.2189E+01
  0.2025E+01
  0.1826E+01
  0.1623E+01
  0.1434E+01
  0.1268E+01
  0.1122E+01
  0.9914E+00
  0.8763E+00
  0.7760E+00
  0.6933E+00
  0.6218E+00
  0.5674E+00
  0.5711E+00
  0.6285E+00
  0.6616E+00
  0.6266E+00
  0.5529E+00
  0.5353E+00
  0.5343E+00
  0.4956E+00
  0.3819E+00
  0.2752E+00
  0.2158E+00
  0.2010E+00
  0.2000E+00
  0.2000E+00
  0.2000E+00
  0.2000E+00
  0.2000E+00
  0.2000E+00
  0.2000E+00
  0.2000E+00
  0.2000E+00
  0.2000E+00
  0.2000E+00
  0.2000E+00
  0.2000E+00
  0.2107E+01
  0.2107E+01
  0.2107E+01
  0.2107E+01
  0.2107E+01
  0.2107E+01
  0.2107E+01
  0.2107E+01
  0.2107E+01
  0.2107E+01
  0.2107E+01
  0.2107E+01
  0.2107E+01
  0.2107E+01
  0.2107E+01
  0.2107E+01
  0.2107E+01
  0.2107E+01
  0.2107E+01
  0.2105E+01
  0.2095E+01
  0.2061E+01
  0.1976E+01
  0.1833E+01
  0.1653E+01
  0.1466E+01
  0.1291E+01
  0.1138E+01
  0.1003E+01
  0.8822E+00
  0.7760E+00
  0.6867E+00
  0.6082E+00
  0.5500E+00
  0.5501E+00
  0.5903E+00
  0.6413E+00
  0.6325E+00
  0.5614E+00
  0.5215E+00
  0.5221E+00
  0.5072E+00
  0.4300E+00
  0.3226E+00
  0.2424E+00
  0.2065E+00
  0.2003E+00
  0.2000E+00
  0.2000E+00
  0.2000E+00
  0.2000E+00
  0.2000E+00
  0.2000E+00
  0.2000E+00
  0.2000E+00
  0.2000E+00
  0.2000E+00
  0.2000E+00
  0.2000E+00
  0.2000E+00
  0.1899E+01
  0.1899E+01
  0.1899E+01
  0.1899E+01
  0.1899E+01
  0.1899E+01
  0.1899E+01
  0.1899E+01
  0.1899E+01
  0.1899E+01
  0.1899E+01
  0.1899E+01
  0.1899E+01
  0.1899E+01
  0.1899E+01
  0.1899E+01
  0.1899E+01
  0.1899E+01
  0.1899E+01
  0.1898E+01
  0.1891E+01
  0.1863E+01
  0.1793E+01
  0.1668E+01
  0.1505E+01
  0.1333E+01
  0.1170E+01
  0.1027E+01
  0.9006E+00
  0.7887E+00
  0.6934E+00
  0.6085E+00
  0.5446E+00
  0.5413E+00
  0.5717E+00
  0.6278E+00
  0.6323E+00
  0.5814E+00
  0.5218E+00
  0.5133E+00
  0.5045E+00
  0.4549E+00
  0.3606E+00
  0.2737E+00
  0.2198E+00
  0.2021E+00
  0.2001E+00
  0.2000E+00
  0.2000E+00
  0.2000E+00
  0.2000E+00
  0.2000E+00
  0.2000E+00
  0.2000E+00
  0.2000E+00
  0.2000E+00
  0.2000E+00
  0.2000E+00
  0.2000E+00
  0.2000E+00
  0.1726E+01
  0.1726E+01
  0.1726E+01
  0.1726E+01
  0.1726E+01
  0.1726E+01
  0.1726E+01
  0.1726E+01
  0.1726E+01
  0.1726E+01
  0.1726E+01
  0.1726E+01
  0.1726E+01
  0.1726E+01
  0.1726E+01
  0.1726E+01
  0.1726E+01
  0.1726E+01
  0.1726E+01
  0.1725E+01
  0.1720E+01
  0.1699E+01
  0.1641E+01
  0.1531E+01
  0.1383E+01
  0.1223E+01
  0.1070E+01
  0.9356E+00
  0.8173E+00
  0.7140E+00
  0.6211E+00
  0.5501E+00
  0.5415E+00
  0.5569E+00
  0.6144E+00
  0.6349E+00
  0.6016E+00
  0.5361E+00
  0.5099E+00
  0.5002E+00
  0.4642E+00
  0.3856E+00
  0.3007E+00
  0.2380E+00
  0.2074E+00
  0.2005E+00
  0.2000E+00
  0.2000E+00
  0.2000E+00
  0.2000E+00
  0.2000E+00
  0.2000E+00
  0.2000E+00
  0.2000E+00
  0.2000E+00
  0.2000E+00
  0.2000E+00
  0.2000E+00
  0.2000E+00
  0.2000E+00
  0.1586E+01
  0.1586E+01
  0.1586E+01
  0.1586E+01
  0.1586E+01
  0.1586E+01
  0.1586E+01
  0.1586E+01
  0.1586E+01
  0.1586E+01
  0.1586E+01
  0.1586E+01
  0.1586E+01
  0.1586E+01
  0.1586E+01
  0.1586E+01
  0.1586E+01
  0.1586E+01
  0.1586E+01
  0.1586E+01
  0.1582E+01
  0.1565E+01
  0.1517E+01
  0.1421E+01
  0.1286E+01
  0.1135E+01
  0.9891E+00
  0.8606E+00
  0.7472E+00
  0.6461E+00
  0.5681E+00
  0.5487E+00
  0.5723E+00
  0.6157E+00
  0.6349E+00
  0.6148E+00
  0.5523E+00
  0.5135E+00
  0.4991E+00
  0.4661E+00
  0.3992E+00
  0.3202E+00
  0.2552E+00
  0.2158E+00
  0.2021E+00
  0.2001E+00
  0.2000E+00
  0.2000E+00
  0.2000E+00
  0.2000E+00
  0.2000E+00
  0.2000E+00
  0.2000E+00
  0.2000E+00
  0.2000E+00
  0.2000E+00
  0.2000E+00
  0.2000E+00
  0.2000E+00
  0.2000E+00
  0.1461E+01
  0.1461E+01
  0.1461E+01
  0.1461E+01
  0.1461E+01
  0.1461E+01
  0.1461E+01
  0.1461E+01
  0.1461E+01
  0.1461E+01
  0.1461E+01
  0.1461E+01
  0.1461E+01
  0.1461E+01
  0.1461E+01
  0.1461E+01
  0.1461E+01
  0.1461E+01
  0.1461E+01
  0.1460E+01
  0.1457E+01
  0.1445E+01
  0.1405E+01
  0.1321E+01
  0.1196E+01
  0.1053E+01
  0.9138E+00
  0.7919E+00
  0.6823E+00
  0.6054E+00
  0.5706E+00
  0.5902E+00
  0.6277E+00
  0.6345E+00
  0.6172E+00
  0.5594E+00
  0.5157E+00
  0.4966E+00
  0.4657E+00
  0.4038E+00
  0.3315E+00
  0.2686E+00
  0.2250E+00
  0.2050E+00
  0.2004E+00
  0.2000E+00
  0.2000E+00
  0.2000E+00
  0.2000E+00
  0.2000E+00
  0.2000E+00
  0.2000E+00
  0.2000E+00
  0.2000E+00
  0.2000E+00
  0.2000E+00
  0.2000E+00
  0.2000E+00
  0.2000E+00
  0.2000E+00
  0.1359E+01
  0.1359E+01
  0.1359E+01
  0.1359E+01
  0.1359E+01
  0.1359E+01
  0.1359E+01
  0.1359E+01
  0.1359E+01
  0.1359E+01
  0.1359E+01
  0.1359E+01
  0.1359E+01
  0.1359E+01
  0.1359E+01
  0.1359E+01
  0.1359E+01
  0.1359E+01
  0.1359E+01
  0.1358E+01
  0.1356E+01
  0.1345E+01
  0.1311E+01
  0.1236E+01
  0.1120E+01
  0.9870E+00
  0.8577E+00
  0.7458E+00
  0.6671E+00
  0.6131E+00
  0.6292E+00
  0.6431E+00
  0.6338E+00
  0.6028E+00
  0.5535E+00
  0.5170E+00
  0.4956E+00
  0.4627E+00
  0.4033E+00
  0.3352E+00
  0.2770E+00
  0.2331E+00
  0.2087E+00
  0.2011E+00
  0.2001E+00
  0.2000E+00
  0.2000E+00
  0.2000E+00
  0.2000E+00
  0.2000E+00
  0.2000E+00
  0.2000E+00
  0.2000E+00
  0.2000E+00
  0.2000E+00
  0.2000E+00
  0.2000E+00
  0.2000E+00
  0.2000E+00
  0.2000E+00
  0.1296E+01
  0.1296E+01
  0.1296E+01
  0.1296E+01
  0.1296E+01
  0.1296E+01
  0.1296E+01
  0.1296E+01
  0.1296E+01
  0.1296E+01
  0.1296E+01
  0.1296E+01
  0.1296E+01
  0.1296E+01
  0.1296E+01
  0.1296E+01
  0.1296E+01
  0.1296E+01
  0.1296E+01
  0.1296E+01
  0.1294E+01
  0.1284E+01
  0.1253E+01
  0.1183E+01
  0.1076E+01
  0.9519E+00
  0.8338E+00
  0.7417E+00
  0.6826E+00
  0.6660E+00
  0.6579E+00
  0.6323E+00
  0.5805E+00
  0.5363E+00
  0.5121E+00
  0.4957E+00
  0.4632E+00
  0.4034E+00
  0.3355E+00
  0.2800E+00
  0.2386E+00
  0.2126E+00
  0.2022E+00
  0.2002E+00
  0.2000E+00
  0.2000E+00
  0.2000E+00
  0.2000E+00
  0.2000E+00
  0.2000E+00
  0.2000E+00
  0.2000E+00
  0.2000E+00
  0.2000E+00
  0.2000E+00
  0.2000E+00
  0.2000E+00
  0.2000E+00
  0.2000E+00
  0.2000E+00
  0.1234E+01
  0.1234E+01
  0.1234E+01
  0.1234E+01
  0.1234E+01
  0.1234E+01
  0.1234E+01
  0.1234E+01
  0.1234E+01
  0.1234E+01
  0.1234E+01
  0.1234E+01
  0.1234E+01
  0.1234E+01
  0.1234E+01
  0.1234E+01
  0.1234E+01
  0.1234E+01
  0.1234E+01
  0.1233E+01
  0.1231E+01
  0.1221E+01
  0.1191E+01
  0.1125E+01
  0.1026E+01
  0.9173E+00
  0.8188E+00
  0.7472E+00
  0.7035E+00
  0.6738E+00
  0.6264E+00
  0.5614E+00
  0.5223E+00
  0.5121E+00
  0.4995E+00
  0.4644E+00
  0.4036E+00
  0.3355E+00
  0.2799E+00
  0.2406E+00
  0.2155E+00
  0.2035E+00
  0.2004E+00
  0.2000E+00
  0.2000E+00
  0.2000E+00
  0.2000E+00
  0.2000E+00
  0.2000E+00
  0.2000E+00
  0.2000E+00
  0.2000E+00
  0.2000E+00
  0.2000E+00
  0.2000E+00
  0.2000E+00
  0.2000E+00
  0.2000E+00
  0.2000E+00
  0.2000E+00
  0.1114E+01
  0.1114E+01
  0.1114E+01
  0.1114E+01
  0.1114E+01
  0.1114E+01
  0.1114E+01
  0.1114E+01
  0.1114E+01
  0.1114E+01
  0.1114E+01
  0.1114E+01
  0.1114E+01
  0.1114E+01
  0.1114E+01
  0.1114E+01
  0.1114E+01
  0.1114E+01
  0.1114E+01
  0.1114E+01
  0.1111E+01
  0.1100E+01
  0.1070E+01
  0.1012E+01
  0.9297E+00
  0.8443E+00
  0.7727E+00
  0.7214E+00
  0.6738E+00
  0.6153E+00
  0.5542E+00
  0.5213E+00
  0.5122E+00
  0.5019E+00
  0.4677E+00
  0.4039E+00
  0.3355E+00
  0.2801E+00
  0.2406E+00
  0.2164E+00
  0.2044E+00
  0.2007E+00
  0.2001E+00
  0.2000E+00
  0.2000E+00
  0.2000E+00
  0.2000E+00
  0.2000E+00
  0.2000E+00
  0.2000E+00
  0.2000E+00
  0.2000E+00
  0.2000E+00
  0.2000E+00
  0.2000E+00
  0.2000E+00
  0.2000E+00
  0.2000E+00
  0.2000E+00
  0.2000E+00
  0.9480E+00
  0.9480E+00
  0.9480E+00
  0.9480E+00
  0.9480E+00
  0.9480E+00
  0.9480E+00
  0.9480E+00
  0.9480E+00
  0.9480E+00
  0.9480E+00
  0.9480E+00
  0.9480E+00
  0.9480E+00
  0.9480E+00
  0.9480E+00
  0.9480E+00
  0.9480E+00
  0.9479E+00
  0.9472E+00
  0.9439E+00
  0.9325E+00
  0.9050E+00
  0.8578E+00
  0.7983E+00
  0.7392E+00
  0.6894E+00
  0.6445E+00
  0.6008E+00
  0.5597E+00
  0.5365E+00
  0.5215E+00
  0.5040E+00
  0.4639E+00
  0.3996E+00
  0.3317E+00
  0.2771E+00
  0.2387E+00
  0.2155E+00
  0.2044E+00
  0.2009E+00
  0.2001E+00
  0.2000E+00
  0.2000E+00
  0.2000E+00
  0.2000E+00
  0.2000E+00
  0.2000E+00
  0.2000E+00
  0.2000E+00
  0.2000E+00
  0.2000E+00
  0.2000E+00
  0.2000E+00
  0.2000E+00
  0.2000E+00
  0.2000E+00
  0.2000E+00
  0.2000E+00
  0.2000E+00
  0.8087E+00
  0.8087E+00
  0.8087E+00
  0.8087E+00
  0.8087E+00
  0.8087E+00
  0.8087E+00
  0.8087E+00
  0.8087E+00
  0.8087E+00
  0.8087E+00
  0.8087E+00
  0.8087E+00
  0.8087E+00
  0.8087E+00
  0.8087E+00
  0.8087E+00
  0.8087E+00
  0.8086E+00
  0.8077E+00
  0.8039E+00
  0.7923E+00
  0.7683E+00
  0.7341E+00
  0.6958E+00
  0.6590E+00
  0.6280E+00
  0.5995E+00
  0.5768E+00
  0.5549E+00
  0.5343E+00
  0.5076E+00
  0.4544E+00
  0.3855E+00
  0.3201E+00
  0.2686E+00
  0.2330E+00
  0.2125E+00
  0.2035E+00
  0.2007E+00
  0.2001E+00
  0.2000E+00
  0.2000E+00
  0.2000E+00
  0.2000E+00
  0.2000E+00
  0.2000E+00
  0.2000E+00
  0.2000E+00
  0.2000E+00
  0.2000E+00
  0.2000E+00
  0.2000E+00
  0.2000E+00
  0.2000E+00
  0.2000E+00
  0.2000E+00
  0.2000E+00
  0.2000E+00
  0.2000E+00
  0.7537E+00
  0.7537E+00
  0.7537E+00
  0.7537E+00
  0.7537E+00
  0.7537E+00
  0.7537E+00
  0.7537E+00
  0.7537E+00
  0.7537E+00
  0.7537E+00
  0.7537E+00
  0.7537E+00
  0.7537E+00
  0.7537E+00
  0.7537E+00
  0.7537E+00
  0.7537E+00
  0.7535E+00
  0.7525E+00
  0.7483E+00
  0.7368E+00
  0.7159E+00
  0.6896E+00
  0.6630E+00
  0.6380E+00
  0.6151E+00
  0.5909E+00
  0.5681E+00
  0.5393E+00
  0.4947E+00
  0.4303E+00
  0.3607E+00
  0.3006E+00
  0.2552E+00
  0.2250E+00
  0.2087E+00
  0.2022E+00
  0.2004E+00
  0.2001E+00
  0.2000E+00
  0.2000E+00
  0.2000E+00
  0.2000E+00
  0.2000E+00
  0.2000E+00
  0.2000E+00
  0.2000E+00
  0.2000E+00
  0.2000E+00
  0.2000E+00
  0.2000E+00
  0.2000E+00
  0.2000E+00
  0.2000E+00
  0.2000E+00
  0.2000E+00
  0.2000E+00
  0.2000E+00
  0.2000E+00
  0.7261E+00
  0.7261E+00
  0.7261E+00
  0.7261E+00
  0.7261E+00
  0.7261E+00
  0.7261E+00
  0.7261E+00
  0.7261E+00
  0.7261E+00
  0.7261E+00
  0.7261E+00
  0.7261E+00
  0.7261E+00
  0.7261E+00
  0.7261E+00
  0.7261E+00
  0.7261E+00
  0.7259E+00
  0.7248E+00
  0.7204E+00
  0.7091E+00
  0.6898E+00
  0.6659E+00
  0.6407E+00
  0.6151E+00
  0.5882E+00
  0.5509E+00
  0.5038E+00
  0.4453E+00
  0.3819E+00
  0.3225E+00
  0.2737E+00
  0.2380E+00
  0.2158E+00
  0.2050E+00
  0.2011E+00
  0.2002E+00
  0.2000E+00
  0.2000E+00
  0.2000E+00
  0.2000E+00
  0.2000E+00
  0.2000E+00
  0.2000E+00
  0.2000E+00
  0.2000E+00
  0.2000E+00
  0.2000E+00
  0.2000E+00
  0.2000E+00
  0.2000E+00
  0.2000E+00
  0.2000E+00
  0.2000E+00
  0.2000E+00
  0.2000E+00
  0.2000E+00
  0.2000E+00
  0.2000E+00
  0.6135E+00
  0.6135E+00
  0.6135E+00
  0.6135E+00
  0.6135E+00
  0.6135E+00
  0.6135E+00
  0.6135E+00
  0.6135E+00
  0.6135E+00
  0.6135E+00
  0.6135E+00
  0.6135E+00
  0.6135E+00
  0.6135E+00
  0.6135E+00
  0.6135E+00
  0.6135E+00
  0.6133E+00
  0.6121E+00
  0.6079E+00
  0.5979E+00
  0.5818E+00
  0.5600E+00
  0.5324E+00
  0.4982E+00
  0.4566E+00
  0.4107E+00
  0.3623E+00
  0.3161E+00
  0.2751E+00
  0.2423E+00
  0.2198E+00
  0.2074E+00
  0.2021E+00
  0.2004E+00
  0.2001E+00
  0.2000E+00
  0.2000E+00
  0.2000E+00
  0.2000E+00
  0.2000E+00
  0.2000E+00
  0.2000E+00
  0.2000E+00
  0.2000E+00
  0.2000E+00
  0.2000E+00
  0.2000E+00
  0.2000E+00
  0.2000E+00
  0.2000E+00
  0.2000E+00
  0.2000E+00
  0.2000E+00
  0.2000E+00
  0.2000E+00
  0.2000E+00
  0.2000E+00
  0.2000E+00
  0.3947E+00
  0.3947E+00
  0.3947E+00
  0.3947E+00
  0.3947E+00
  0.3947E+00
  0.3947E+00
  0.3947E+00
  0.3947E+00
  0.3947E+00
  0.3947E+00
  0.3947E+00
  0.3947E+00
  0.3947E+00
  0.3947E+00
  0.3947E+00
  0.3947E+00
  0.3946E+00
  0.3945E+00
  0.3939E+00
  0.3917E+00
  0.3867E+00
  0.3782E+00
  0.3653E+00
  0.3478E+00
  0.3264E+00
  0.3023E+00
  0.2770E+00
  0.2525E+00
  0.2314E+00
  0.2158E+00
  0.2065E+00
  0.2021E+00
  0.2005E+00
  0.2001E+00
  0.2000E+00
  0.2000E+00
  0.2000E+00
  0.2000E+00
  0.2000E+00
  0.2000E+00
  0.2000E+00
  0.2000E+00
  0.2000E+00
  0.2000E+00
  0.2000E+00
  0.2000E+00
  0.2000E+00
  0.2000E+00
  0.2000E+00
  0.2000E+00
  0.2000E+00
  0.2000E+00
  0.2000E+00
  0.2000E+00
  0.2000E+00
  0.2000E+00
  0.2000E+00
  0.2000E+00
  0.2000E+00
  0.2505E+00
  0.2505E+00
  0.2505E+00
  0.2505E+00
  0.2505E+00
  0.2505E+00
  0.2505E+00
  0.2505E+00
  0.2505E+00
  0.2505E+00
  0.2505E+00
  0.2505E+00
  0.2505E+00
  0.2505E+00
  0.2505E+00
  0.2505E+00
  0.2505E+00
  0.2505E+00
  0.2505E+00
  0.2503E+00
  0.2497E+00
  0.2484E+00
  0.2457E+00
  0.2414E+00
  0.2352E+00
  0.2276E+00
  0.2194E+00
  0.2120E+00
  0.2063E+00
  0.2027E+00
  0.2010E+00
  0.2003E+00
  0.2001E+00
  0.2000E+00
  0.2000E+00
  0.2000E+00
  0.2000E+00
  0.2000E+00
  0.2000E+00
  0.2000E+00
  0.2000E+00
  0.2000E+00
  0.2000E+00
  0.2000E+00
  0.2000E+00
  0.2000E+00
  0.2000E+00
  0.2000E+00
  0.2000E+00
  0.2000E+00
  0.2000E+00
  0.2000E+00
  0.2000E+00
  0.2000E+00
  0.2000E+00
  0.2000E+00
  0.2000E+00
  0.2000E+00
  0.2000E+00
  0.2000E+00
  0.2037E+00
  0.2037E+00
  0.2037E+00
  0.2037E+00
  0.2037E+00
  0.2037E+00
  0.2037E+00
  0.2037E+00
  0.2037E+00
  0.2037E+00
  0.2037E+00
  0.2037E+00
  0.2037E+00
  0.2037E+00
  0.2037E+00
  0.2037E+00
  0.2037E+00
  0.2037E+00
  0.2037E+00
  0.2037E+00
  0.2036E+00
  0.2034E+00
  0.2030E+00
  0.2025E+00
  0.2018E+00
  0.2012E+00
  0.2007E+00
  0.2003E+00
  0.2001E+00
  0.2000E+00
  0.2000E+00
  0.2000E+00
  0.2000E+00
  0.2000E+00
  0.2000E+00
  0.2000E+00
  0.2000E+00
  0.2000E+00
  0.2000E+00
  0.2000E+00
  0.2000E+00
  0.2000E+00
  0.2000E+00
  0.2000E+00
  0.2000E+00
  0.2000E+00
  0.2000E+00
  0.2000E+00
  0.2000E+00
  0.2000E+00
  0.2000E+00
  0.2000E+00
  0.2000E+00
  0.2000E+00
  0.2000E+00
  0.2000E+00
  0.2000E+00
  0.2000E+00
  0.2000E+00
  0.2000E+00
  0.2000E+00
  0.2000E+00
  0.2000E+00
  0.2000E+00
  0.2000E+00
  0.2000E+00
  0.2000E+00
  0.2000E+00
  0.2000E+00
  0.2000E+00
  0.2000E+00
  0.2000E+00
  0.2000E+00
  0.2000E+00
  0.2000E+00
  0.2000E+00
  0.2000E+00
  0.2000E+00
  0.2000E+00
  0.2000E+00
  0.2000E+00
  0.2000E+00
  0.2000E+00
  0.2000E+00
  0.2000E+00
  0.2000E+00
  0.2000E+00
  0.2000E+00
  0.2000E+00
  0.2000E+00
  0.2000E+00
  0.2000E+00
  0.2000E+00
  0.2000E+00
  0.2000E+00
  0.2000E+00
  0.2000E+00
  0.2000E+00
  0.2000E+00
  0.2000E+00
  0.2000E+00
  0.2000E+00
  0.2000E+00
  0.2000E+00
  0.2000E+00
  0.2000E+00
  0.2000E+00
  0.2000E+00
  0.2000E+00
  0.2000E+00
  0.2000E+00
  0.2000E+00
  0.2000E+00
  0.2000E+00
  0.2000E+00
  0.2000E+00
  0.2000E+00
  0.2000E+00
  0.2000E+00
  0.2000E+00
  0.2000E+00
  0.2000E+00
  0.2000E+00
  0.2000E+00
  0.2000E+00
  0.2000E+00
  0.2000E+00
  0.2000E+00
  0.2000E+00
  0.2000E+00
  0.2000E+00
  0.2000E+00
  0.2000E+00
  0.2000E+00
  0.2000E+00
  0.2000E+00
  0.2000E+00
  0.2000E+00
  0.2000E+00
  0.2000E+00
  0.2000E+00
  0.2000E+00
  0.2000E+00
  0.2000E+00
  0.2000E+00
  0.2000E+00
  0.2000E+00
  0.2000E+00
  0.2000E+00
  0.2000E+00
  0.2000E+00
  0.2000E+00
  0.2000E+00
  0.2000E+00
  0.2000E+00
  0.2000E+00
  0.2000E+00
  0.2000E+00
  0.2000E+00
  0.2000E+00
  0.2000E+00
  0.2000E+00
  0.2000E+00
  0.2000E+00
  0.2000E+00
  0.2000E+00
  0.2000E+00
  0.2000E+00
  0.2000E+00
  0.2000E+00
  0.2000E+00
  0.2000E+00
  0.2000E+00
  0.2000E+00
  0.2000E+00
  0.2000E+00
  0.2000E+00
  0.2000E+00
  0.2000E+00
  0.2000E+00
  0.2000E+00
  0.2000E+00
  0.2000E+00
  0.2000E+00
  0.2000E+00
  0.2000E+00
  0.2000E+00
  0.2000E+00
  0.2000E+00
  0.2000E+00
  0.2000E+00
  0.2000E+00
  0.2000E+00
  0.2000E+00
  0.2000E+00
  0.2000E+00
  0.2000E+00
  0.2000E+00
  0.2000E+00
  0.2000E+00
  0.2000E+00
  0.2000E+00
  0.2000E+00
  0.2000E+00
  0.2000E+00
  0.2000E+00
  0.2000E+00
  0.2000E+00
  0.2000E+00
  0.2000E+00
  0.2000E+00
  0.2000E+00
  0.2000E+00
  0.2000E+00
  0.2000E+00
  0.2000E+00
  0.2000E+00
  0.2000E+00
  0.2000E+00
  0.2000E+00
  0.2000E+00
  0.2000E+00
  0.2000E+00
  0.2000E+00
  0.2000E+00
  0.2000E+00
  0.2000E+00
  0.2000E+00
  0.2000E+00
  0.2000E+00
  0.2000E+00
  0.2000E+00
  0.2000E+00
  0.2000E+00
  0.2000E+00
  0.2000E+00
  0.2000E+00
  0.2000E+00
  0.2000E+00
  0.2000E+00
  0.2000E+00
  0.2000E+00
  0.2000E+00
  0.2000E+00
  0.2000E+00
  0.2000E+00
  0.2000E+00
  0.2000E+00
  0.2000E+00
  0.2000E+00
  0.2000E+00
  0.2000E+00
  0.2000E+00
  0.2000E+00
  0.2000E+00
  0.2000E+00
  0.2000E+00
  0.2000E+00
  0.2000E+00
  0.2000E+00
  0.2000E+00
  0.2000E+00
  0.2000E+00
  0.2000E+00
  0.2000E+00
  0.2000E+00
  0.2000E+00
  0.2000E+00
  0.2000E+00
  0.2000E+00
  0.2000E+00
  0.2000E+00
  0.2000E+00
  0.2000E+00
  0.2000E+00
  0.2000E+00
  0.2000E+00
  0.2000E+00
  0.2000E+00
  0.2000E+00
  0.2000E+00
  0.2000E+00
  0.2000E+00
  0.2000E+00
  0.2000E+00
  0.2000E+00
  0.2000E+00
  0.2000E+00
  0.2000E+00
  0.2000E+00
  0.2000E+00
  0.2000E+00
  0.2000E+00
  0.2000E+00
  0.2000E+00
  0.2000E+00
  0.2000E+00
  0.2000E+00
  0.2000E+00
  0.2000E+00
  0.2000E+00
  0.2000E+00
  0.2000E+00
  0.2000E+00
  0.2000E+00
  0.2000E+00
  0.2000E+00
  0.2000E+00
  0.2000E+00
  0.2000E+00
  0.2000E+00
  0.2000E+00
  0.2000E+00
  0.2000E+00
  0.2000E+00
  0.2000E+00
  0.2000E+00
  0.2000E+00
  0.2000E+00
  0.2000E+00
  0.2000E+00
  0.2000E+00
  0.2000E+00
  0.2000E+00
  0.2000E+00
  0.2000E+00
  0.2000E+00
  0.2000E+00
  0.2000E+00
  0.2000E+00
  0.2000E+00
  0.2000E+00
  0.2000E+00
  0.2000E+00
  0.2000E+00
  0.2000E+00
  0.2000E+00
  0.2000E+00
  0.2000E+00
  0.2000E+00
  0.2000E+00
  0.2000E+00
  0.2000E+00
  0.2000E+00
  0.2000E+00
  0.2000E+00
  0.2000E+00
  0.2000E+00
  0.2000E+00
  0.2000E+00
  0.2000E+00
  0.2000E+00
  0.2000E+00
  0.2000E+00
  0.2000E+00
  0.2000E+00
  0.2000E+00
  0.2000E+00
  0.2000E+00
  0.2000E+00
  0.2000E+00
  0.2000E+00
  0.2000E+00
  0.2000E+00
  0.2000E+00
  0.2000E+00
  0.2000E+00
  0.2000E+00
  0.2000E+00
  0.2000E+00
  0.2000E+00
  0.2000E+00
  0.2000E+00
  0.2000E+00
  0.2000E+00
  0.2000E+00
  0.2000E+00
  0.2000E+00
  0.2000E+00
  0.2000E+00
  0.2000E+00
  0.2000E+00
  0.2000E+00
  0.2000E+00
  0.2000E+00
  0.2000E+00
  0.2000E+00
  0.2000E+00
  0.2000E+00
  0.2000E+00
  0.2000E+00
  0.2000E+00
  0.2000E+00
  0.2000E+00
  0.2000E+00
  0.2000E+00
  0.2000E+00
  0.2000E+00
  0.2000E+00
  0.2000E+00
  0.2000E+00
  0.2000E+00
  0.2000E+00
  0.2000E+00
  0.2000E+00
  0.2000E+00
  0.2000E+00
  0.2000E+00
  0.2000E+00
  0.2000E+00
  0.2000E+00
  0.2000E+00
  0.2000E+00
  0.2000E+00
  0.2000E+00
  0.2000E+00
  0.2000E+00
  0.2000E+00
  0.2000E+00
  0.2000E+00
  0.2000E+00
  0.2000E+00
  0.2000E+00
  0.2000E+00