# vtk DataFile Version 3.0
vtk output
ASCII
DATASET RECTILINEAR_GRID
DIMENSIONS          61          61 1
X_COORDINATES    61 double
  0.0000E+00
  0.1667E+00
  0.3333E+00
  0.5000E+00
  0.6667E+00
  0.8333E+00
  0.1000E+01
  0.1167E+01
  0.1333E+01
  0.1500E+01
  0.1667E+01
  0.1833E+01
  0.2000E+01
  0.2167E+01
  0.2333E+01
  0.2500E+01
  0.2667E+01
  0.2833E+01
  0.3000E+01
  0.3167E+01
  0.3333E+01
  0.3500E+01
  0.3667E+01
  0.3833E+01
  0.4000E+01
  0.4167E+01
  0.4333E+01
  0.4500E+01
  0.4667E+01
  0.4833E+01
  0.5000E+01
  0.5167E+01
  0.5333E+01
  0.5500E+01
  0.5667E+01
  0.5833E+01
  0.6000E+01
  0.6167E+01
  0.6333E+01
  0.6500E+01
  0.6667E+01
  0.6833E+01
  0.7000E+01
  0.7167E+01
  0.7333E+01
  0.7500E+01
  0.7667E+01
  0.7833E+01
  0.8000E+01
  0.8167E+01
  0.8333E+01
  0.8500E+01
  0.8667E+01
  0.8833E+01
  0.9000E+01
  0.9167E+01
  0.9333E+01
  0.9500E+01
  0.9667E+01
  0.9833E+01
  0.1000E+02
Y_COORDINATES    61 double
  0.0000E+00
  0.1667E+00
  0.3333E+00
  0.5000E+00
  0.6667E+00
  0.8333E+00
  0.1000E+01
  0.1167E+01
  0.1333E+01
  0.1500E+01
  0.1667E+01
  0.1833E+01
  0.2000E+01
  0.2167E+01
  0.2333E+01
  0.2500E+01
  0.2667E+01
  0.2833E+01
  0.3000E+01
  0.3167E+01
  0.3333E+01
  0.3500E+01
  0.3667E+01
  0.3833E+01
  0.4000E+01
  0.4167E+01
  0.4333E+01
  0.4500E+01
  0.4667E+01
  0.4833E+01
  0.5000E+01
  0.5167E+01
  0.5333E+01
  0.5500E+01
  0.5667E+01
  0.5833E+01
  0.6000E+01
  0.6167E+01
  0.6333E+01
  0.6500E+01
  0.6667E+01
  0.6833E+01
  0.7000E+01
  0.7167E+01
  0.7333E+01
  0.7500E+01
  0.7667E+01
  0.7833E+01
  0.8000E+01
  0.8167E+01
  0.8333E+01
  0.8500E+01
  0.8667E+01
  0.8833E+01
  0.9000E+01
  0.9167E+01
  0.9333E+01
  0.9500E+01
  0.9667E+01
  0.9833E+01
  0.1000E+02
Z_COORDINATES 1 double
0
CELL_DATA                 3600
FIELD FieldData 4
density 1                 3600 double
  0.2763E+01
  0.2763E+01
  0.2763E+01
  0.2763E+01
  0.2763E+01
  0.2763E+01
  0.2763E+01
  0.2760E+01
  0.2754E+01
  0.2736E+01
  0.2700E+01
  0.2640E+01
  0.2561E+01
  0.2468E+01
  0.2371E+01
  0.2273E+01
  0.2177E+01
  0.2084E+01
  0.1994E+01
  0.1908E+01
  0.1825E+01
  0.1746E+01
  0.1671E+01
  0.1600E+01
  0.1533E+01
  0.1468E+01
  0.1407E+01
  0.1349E+01
  0.1293E+01
  0.1240E+01
  0.1190E+01
  0.1142E+01
  0.1096E+01
  0.1052E+01
  0.1010E+01
  0.9705E+00
  0.9332E+00
  0.8979E+00
  0.8648E+00
  0.8339E+00
  0.8055E+00
  0.7810E+00
  0.7615E+00
  0.7549E+00
  0.7565E+00
  0.7684E+00
  0.7879E+00
  0.8084E+00
  0.8255E+00
  0.8366E+00
  0.8425E+00
  0.8464E+00
  0.8437E+00
  0.8145E+00
  0.7441E+00
  0.6620E+00
  0.6749E+00
  0.8332E+00
  0.1214E+01
  0.1383E+01
  0.2760E+01
  0.2760E+01
  0.2760E+01
  0.2760E+01
  0.2760E+01
  0.2760E+01
  0.2760E+01
  0.2757E+01
  0.2751E+01
  0.2733E+01
  0.2697E+01
  0.2638E+01
  0.2558E+01
  0.2466E+01
  0.2369E+01
  0.2271E+01
  0.2175E+01
  0.2082E+01
  0.1992E+01
  0.1906E+01
  0.1823E+01
  0.1744E+01
  0.1670E+01
  0.1598E+01
  0.1531E+01
  0.1466E+01
  0.1405E+01
  0.1347E+01
  0.1291E+01
  0.1238E+01
  0.1188E+01
  0.1140E+01
  0.1094E+01
  0.1050E+01
  0.1008E+01
  0.9684E+00
  0.9310E+00
  0.8957E+00
  0.8626E+00
  0.8315E+00
  0.8030E+00
  0.7783E+00
  0.7586E+00
  0.7518E+00
  0.7531E+00
  0.7640E+00
  0.7833E+00
  0.8039E+00
  0.8211E+00
  0.8333E+00
  0.8421E+00
  0.8481E+00
  0.8458E+00
  0.8167E+00
  0.7440E+00
  0.6601E+00
  0.6728E+00
  0.8352E+00
  0.1200E+01
  0.1337E+01
  0.2754E+01
  0.2754E+01
  0.2754E+01
  0.2754E+01
  0.2754E+01
  0.2754E+01
  0.2754E+01
  0.2752E+01
  0.2745E+01
  0.2728E+01
  0.2692E+01
  0.2633E+01
  0.2554E+01
  0.2462E+01
  0.2365E+01
  0.2267E+01
  0.2171E+01
  0.2078E+01
  0.1988E+01
  0.1902E+01
  0.1819E+01
  0.1740E+01
  0.1666E+01
  0.1594E+01
  0.1527E+01
  0.1462E+01
  0.1401E+01
  0.1343E+01
  0.1287E+01
  0.1234E+01
  0.1184E+01
  0.1135E+01
  0.1089E+01
  0.1045E+01
  0.1004E+01
  0.9640E+00
  0.9265E+00
  0.8911E+00
  0.8578E+00
  0.8266E+00
  0.7978E+00
  0.7729E+00
  0.7528E+00
  0.7449E+00
  0.7459E+00
  0.7554E+00
  0.7740E+00
  0.7946E+00
  0.8123E+00
  0.8272E+00
  0.8417E+00
  0.8513E+00
  0.8494E+00
  0.8193E+00
  0.7420E+00
  0.6547E+00
  0.6676E+00
  0.8269E+00
  0.1182E+01
  0.1359E+01
  0.2745E+01
  0.2745E+01
  0.2745E+01
  0.2745E+01
  0.2745E+01
  0.2745E+01
  0.2744E+01
  0.2742E+01
  0.2736E+01
  0.2719E+01
  0.2684E+01
  0.2626E+01
  0.2547E+01
  0.2455E+01
  0.2358E+01
  0.2261E+01
  0.2165E+01
  0.2072E+01
  0.1982E+01
  0.1896E+01
  0.1813E+01
  0.1734E+01
  0.1660E+01
  0.1588E+01
  0.1521E+01
  0.1456E+01
  0.1395E+01
  0.1337E+01
  0.1281E+01
  0.1228E+01
  0.1177E+01
  0.1129E+01
  0.1083E+01
  0.1039E+01
  0.9969E+00
  0.9571E+00
  0.9194E+00
  0.8838E+00
  0.8502E+00
  0.8186E+00
  0.7895E+00
  0.7641E+00
  0.7437E+00
  0.7336E+00
  0.7341E+00
  0.7420E+00
  0.7595E+00
  0.7799E+00
  0.7987E+00
  0.8176E+00
  0.8391E+00
  0.8543E+00
  0.8528E+00
  0.8194E+00
  0.7363E+00
  0.6455E+00
  0.6585E+00
  0.8229E+00
  0.1169E+01
  0.1344E+01
  0.2732E+01
  0.2732E+01
  0.2732E+01
  0.2732E+01
  0.2732E+01
  0.2732E+01
  0.2732E+01
  0.2730E+01
  0.2723E+01
  0.2707E+01
  0.2673E+01
  0.2615E+01
  0.2537E+01
  0.2446E+01
  0.2349E+01
  0.2252E+01
  0.2156E+01
  0.2063E+01
  0.1973E+01
  0.1887E+01
  0.1804E+01
  0.1726E+01
  0.1651E+01
  0.1580E+01
  0.1512E+01
  0.1448E+01
  0.1387E+01
  0.1328E+01
  0.1272E+01
  0.1219E+01
  0.1168E+01
  0.1120E+01
  0.1074E+01
  0.1029E+01
  0.9871E+00
  0.9470E+00
  0.9089E+00
  0.8728E+00
  0.8388E+00
  0.8067E+00
  0.7770E+00
  0.7509E+00
  0.7298E+00
  0.7171E+00
  0.7164E+00
  0.7229E+00
  0.7391E+00
  0.7589E+00
  0.7799E+00
  0.8043E+00
  0.8349E+00
  0.8564E+00
  0.8542E+00
  0.8146E+00
  0.7255E+00
  0.6328E+00
  0.6464E+00
  0.8085E+00
  0.1147E+01
  0.1341E+01
  0.2715E+01
  0.2715E+01
  0.2715E+01
  0.2715E+01
  0.2715E+01
  0.2715E+01
  0.2715E+01
  0.2713E+01
  0.2707E+01
  0.2691E+01
  0.2658E+01
  0.2601E+01
  0.2524E+01
  0.2433E+01
  0.2337E+01
  0.2240E+01
  0.2144E+01
  0.2051E+01
  0.1962E+01
  0.1875E+01
  0.1793E+01
  0.1714E+01
  0.1640E+01
  0.1568E+01
  0.1501E+01
  0.1436E+01
  0.1375E+01
  0.1316E+01
  0.1260E+01
  0.1207E+01
  0.1156E+01
  0.1107E+01
  0.1060E+01
  0.1016E+01
  0.9730E+00
  0.9324E+00
  0.8938E+00
  0.8572E+00
  0.8225E+00
  0.7897E+00
  0.7592E+00
  0.7321E+00
  0.7100E+00
  0.6948E+00
  0.6928E+00
  0.6978E+00
  0.7128E+00
  0.7327E+00
  0.7573E+00
  0.7899E+00
  0.8313E+00
  0.8567E+00
  0.8524E+00
  0.8030E+00
  0.7083E+00
  0.6166E+00
  0.6302E+00
  0.7914E+00
  0.1123E+01
  0.1338E+01
  0.2693E+01
  0.2693E+01
  0.2693E+01
  0.2693E+01
  0.2693E+01
  0.2693E+01
  0.2693E+01
  0.2691E+01
  0.2685E+01
  0.2670E+01
  0.2638E+01
  0.2583E+01
  0.2507E+01
  0.2417E+01
  0.2321E+01
  0.2224E+01
  0.2128E+01
  0.2036E+01
  0.1946E+01
  0.1860E+01
  0.1778E+01
  0.1699E+01
  0.1624E+01
  0.1553E+01
  0.1485E+01
  0.1420E+01
  0.1359E+01
  0.1300E+01
  0.1244E+01
  0.1190E+01
  0.1138E+01
  0.1089E+01
  0.1042E+01
  0.9967E+00
  0.9535E+00
  0.9123E+00
  0.8730E+00
  0.8357E+00
  0.8002E+00
  0.7667E+00
  0.7355E+00
  0.7074E+00
  0.6842E+00
  0.6666E+00
  0.6637E+00
  0.6677E+00
  0.6820E+00
  0.7039E+00
  0.7357E+00
  0.7798E+00
  0.8320E+00
  0.8542E+00
  0.8451E+00
  0.7834E+00
  0.6862E+00
  0.5976E+00
  0.6115E+00
  0.7679E+00
  0.1096E+01
  0.1348E+01
  0.2664E+01
  0.2664E+01
  0.2664E+01
  0.2664E+01
  0.2664E+01
  0.2664E+01
  0.2664E+01
  0.2662E+01
  0.2657E+01
  0.2643E+01
  0.2612E+01
  0.2558E+01
  0.2484E+01
  0.2395E+01
  0.2299E+01
  0.2203E+01
  0.2107E+01
  0.2015E+01
  0.1925E+01
  0.1839E+01
  0.1757E+01
  0.1678E+01
  0.1603E+01
  0.1532E+01
  0.1464E+01
  0.1399E+01
  0.1337E+01
  0.1277E+01
  0.1221E+01
  0.1167E+01
  0.1115E+01
  0.1065E+01
  0.1017E+01
  0.9713E+00
  0.9275E+00
  0.8857E+00
  0.8459E+00
  0.8080E+00
  0.7721E+00
  0.7380E+00
  0.7062E+00
  0.6775E+00
  0.6532E+00
  0.6341E+00
  0.6310E+00
  0.6347E+00
  0.6497E+00
  0.6779E+00
  0.7222E+00
  0.7807E+00
  0.8368E+00
  0.8483E+00
  0.8312E+00
  0.7560E+00
  0.6587E+00
  0.5764E+00
  0.5902E+00
  0.7402E+00
  0.1064E+01
  0.1356E+01
  0.2627E+01
  0.2627E+01
  0.2627E+01
  0.2627E+01
  0.2627E+01
  0.2627E+01
  0.2626E+01
  0.2625E+01
  0.2620E+01
  0.2606E+01
  0.2577E+01
  0.2526E+01
  0.2453E+01
  0.2365E+01
  0.2270E+01
  0.2174E+01
  0.2079E+01
  0.1987E+01
  0.1897E+01
  0.1811E+01
  0.1729E+01
  0.1650E+01
  0.1575E+01
  0.1503E+01
  0.1435E+01
  0.1370E+01
  0.1307E+01
  0.1248E+01
  0.1191E+01
  0.1136E+01
  0.1084E+01
  0.1034E+01
  0.9854E+00
  0.9393E+00
  0.8952E+00
  0.8532E+00
  0.8131E+00
  0.7750E+00
  0.7389E+00
  0.7047E+00
  0.6728E+00
  0.6438E+00
  0.6188E+00
  0.5995E+00
  0.5968E+00
  0.6015E+00
  0.6209E+00
  0.6624E+00
  0.7231E+00
  0.7916E+00
  0.8382E+00
  0.8401E+00
  0.8071E+00
  0.7224E+00
  0.6268E+00
  0.5543E+00
  0.5679E+00
  0.7110E+00
  0.1016E+01
  0.1333E+01
  0.2577E+01
  0.2577E+01
  0.2577E+01
  0.2577E+01
  0.2577E+01
  0.2577E+01
  0.2577E+01
  0.2576E+01
  0.2571E+01
  0.2559E+01
  0.2531E+01
  0.2482E+01
  0.2411E+01
  0.2325E+01
  0.2231E+01
  0.2136E+01
  0.2041E+01
  0.1949E+01
  0.1860E+01
  0.1774E+01
  0.1692E+01
  0.1613E+01
  0.1538E+01
  0.1466E+01
  0.1398E+01
  0.1333E+01
  0.1270E+01
  0.1210E+01
  0.1153E+01
  0.1099E+01
  0.1046E+01
  0.9959E+00
  0.9478E+00
  0.9017E+00
  0.8578E+00
  0.8159E+00
  0.7761E+00
  0.7383E+00
  0.7025E+00
  0.6688E+00
  0.6371E+00
  0.6084E+00
  0.5827E+00
  0.5651E+00
  0.5641E+00
  0.5722E+00
  0.6041E+00
  0.6648E+00
  0.7385E+00
  0.8085E+00
  0.8329E+00
  0.8260E+00
  0.7742E+00
  0.6824E+00
  0.5917E+00
  0.5345E+00
  0.5483E+00
  0.6787E+00
  0.9611E+00
  0.1321E+01
  0.2515E+01
  0.2515E+01
  0.2515E+01
  0.2515E+01
  0.2515E+01
  0.2515E+01
  0.2515E+01
  0.2513E+01
  0.2509E+01
  0.2498E+01
  0.2473E+01
  0.2426E+01
  0.2358E+01
  0.2274E+01
  0.2181E+01
  0.2087E+01
  0.1993E+01
  0.1902E+01
  0.1813E+01
  0.1728E+01
  0.1646E+01
  0.1568E+01
  0.1493E+01
  0.1421E+01
  0.1353E+01
  0.1288E+01
  0.1226E+01
  0.1166E+01
  0.1110E+01
  0.1055E+01
  0.1003E+01
  0.9535E+00
  0.9059E+00
  0.8604E+00
  0.8171E+00
  0.7760E+00
  0.7369E+00
  0.6999E+00
  0.6649E+00
  0.6320E+00
  0.6009E+00
  0.5727E+00
  0.5459E+00
  0.5340E+00
  0.5357E+00
  0.5540E+00
  0.6069E+00
  0.6828E+00
  0.7622E+00
  0.8176E+00
  0.8234E+00
  0.8044E+00
  0.7317E+00
  0.6377E+00
  0.5559E+00
  0.5201E+00
  0.5335E+00
  0.6425E+00
  0.9084E+00
  0.1331E+01
  0.2439E+01
  0.2439E+01
  0.2439E+01
  0.2439E+01
  0.2439E+01
  0.2439E+01
  0.2439E+01
  0.2438E+01
  0.2434E+01
  0.2424E+01
  0.2401E+01
  0.2358E+01
  0.2293E+01
  0.2211E+01
  0.2121E+01
  0.2028E+01
  0.1935E+01
  0.1845E+01
  0.1757E+01
  0.1673E+01
  0.1592E+01
  0.1514E+01
  0.1440E+01
  0.1369E+01
  0.1302E+01
  0.1238E+01
  0.1176E+01
  0.1118E+01
  0.1062E+01
  0.1008E+01
  0.9571E+00
  0.9083E+00
  0.8618E+00
  0.8174E+00
  0.7752E+00
  0.7352E+00
  0.6973E+00
  0.6614E+00
  0.6276E+00
  0.5956E+00
  0.5654E+00
  0.5372E+00
  0.5118E+00
  0.5077E+00
  0.5163E+00
  0.5570E+00
  0.6288E+00
  0.7127E+00
  0.7866E+00
  0.8163E+00
  0.8118E+00
  0.7696E+00
  0.6826E+00
  0.5905E+00
  0.5253E+00
  0.5125E+00
  0.5238E+00
  0.6059E+00
  0.8478E+00
  0.1338E+01
  0.2352E+01
  0.2352E+01
  0.2352E+01
  0.2352E+01
  0.2352E+01
  0.2352E+01
  0.2352E+01
  0.2351E+01
  0.2348E+01
  0.2339E+01
  0.2318E+01
  0.2278E+01
  0.2216E+01
  0.2138E+01
  0.2050E+01
  0.1959E+01
  0.1869E+01
  0.1780E+01
  0.1694E+01
  0.1611E+01
  0.1531E+01
  0.1455E+01
  0.1382E+01
  0.1313E+01
  0.1247E+01
  0.1184E+01
  0.1124E+01
  0.1066E+01
  0.1012E+01
  0.9596E+00
  0.9100E+00
  0.8626E+00
  0.8174E+00
  0.7745E+00
  0.7337E+00
  0.6951E+00
  0.6585E+00
  0.6240E+00
  0.5914E+00
  0.5603E+00
  0.5311E+00
  0.5014E+00
  0.4862E+00
  0.4897E+00
  0.5178E+00
  0.5812E+00
  0.6647E+00
  0.7470E+00
  0.8025E+00
  0.8083E+00
  0.7916E+00
  0.7217E+00
  0.6277E+00
  0.5449E+00
  0.5074E+00
  0.5075E+00
  0.5207E+00
  0.5775E+00
  0.7678E+00
  0.1314E+01
  0.2256E+01
  0.2256E+01
  0.2256E+01
  0.2256E+01
  0.2256E+01
  0.2256E+01
  0.2256E+01
  0.2256E+01
  0.2253E+01
  0.2245E+01
  0.2227E+01
  0.2190E+01
  0.2133E+01
  0.2058E+01
  0.1973E+01
  0.1885E+01
  0.1797E+01
  0.1710E+01
  0.1626E+01
  0.1545E+01
  0.1467E+01
  0.1393E+01
  0.1322E+01
  0.1254E+01
  0.1190E+01
  0.1129E+01
  0.1070E+01
  0.1015E+01
  0.9617E+00
  0.9113E+00
  0.8633E+00
  0.8176E+00
  0.7740E+00
  0.7327E+00
  0.6934E+00
  0.6563E+00
  0.6212E+00
  0.5881E+00
  0.5565E+00
  0.5266E+00
  0.4966E+00
  0.4716E+00
  0.4707E+00
  0.4903E+00
  0.5432E+00
  0.6216E+00
  0.7059E+00
  0.7779E+00
  0.8032E+00
  0.7977E+00
  0.7518E+00
  0.6621E+00
  0.5702E+00
  0.5100E+00
  0.5007E+00
  0.5068E+00
  0.5248E+00
  0.5642E+00
  0.6885E+00
  0.1229E+01
  0.2157E+01
  0.2157E+01
  0.2157E+01
  0.2157E+01
  0.2157E+01
  0.2157E+01
  0.2157E+01
  0.2156E+01
  0.2154E+01
  0.2148E+01
  0.2131E+01
  0.2098E+01
  0.2045E+01
  0.1974E+01
  0.1893E+01
  0.1808E+01
  0.1722E+01
  0.1638E+01
  0.1557E+01
  0.1478E+01
  0.1403E+01
  0.1330E+01
  0.1261E+01
  0.1196E+01
  0.1133E+01
  0.1074E+01
  0.1018E+01
  0.9640E+00
  0.9130E+00
  0.8644E+00
  0.8182E+00
  0.7742E+00
  0.7323E+00
  0.6926E+00
  0.6550E+00
  0.6194E+00
  0.5858E+00
  0.5538E+00
  0.5234E+00
  0.4930E+00
  0.4636E+00
  0.4590E+00
  0.4709E+00
  0.5156E+00
  0.5870E+00
  0.6700E+00
  0.7481E+00
  0.7933E+00
  0.7952E+00
  0.7686E+00
  0.6885E+00
  0.5936E+00
  0.5194E+00
  0.4953E+00
  0.4982E+00
  0.5118E+00
  0.5343E+00
  0.5622E+00
  0.6249E+00
  0.1028E+01
  0.2057E+01
  0.2057E+01
  0.2057E+01
  0.2057E+01
  0.2057E+01
  0.2057E+01
  0.2057E+01
  0.2056E+01
  0.2054E+01
  0.2049E+01
  0.2035E+01
  0.2005E+01
  0.1957E+01
  0.1890E+01
  0.1813E+01
  0.1731E+01
  0.1648E+01
  0.1567E+01
  0.1488E+01
  0.1412E+01
  0.1339E+01
  0.1269E+01
  0.1202E+01
  0.1139E+01
  0.1079E+01
  0.1021E+01
  0.9670E+00
  0.9153E+00
  0.8662E+00
  0.8195E+00
  0.7750E+00
  0.7328E+00
  0.6926E+00
  0.6545E+00
  0.6184E+00
  0.5844E+00
  0.5520E+00
  0.5211E+00
  0.4908E+00
  0.4589E+00
  0.4513E+00
  0.4592E+00
  0.4966E+00
  0.5593E+00
  0.6380E+00
  0.7200E+00
  0.7801E+00
  0.7898E+00
  0.7738E+00
  0.7031E+00
  0.6090E+00
  0.5285E+00
  0.4918E+00
  0.4918E+00
  0.5015E+00
  0.5203E+00
  0.5452E+00
  0.5645E+00
  0.5684E+00
  0.7709E+00
  0.1959E+01
  0.1959E+01
  0.1959E+01
  0.1959E+01
  0.1959E+01
  0.1959E+01
  0.1959E+01
  0.1958E+01
  0.1957E+01
  0.1952E+01
  0.1940E+01
  0.1914E+01
  0.1870E+01
  0.1808E+01
  0.1734E+01
  0.1656E+01
  0.1576E+01
  0.1498E+01
  0.1421E+01
  0.1348E+01
  0.1277E+01
  0.1210E+01
  0.1145E+01
  0.1084E+01
  0.1026E+01
  0.9710E+00
  0.9187E+00
  0.8689E+00
  0.8217E+00
  0.7768E+00
  0.7341E+00
  0.6935E+00
  0.6549E+00
  0.6184E+00
  0.5839E+00
  0.5511E+00
  0.5198E+00
  0.4893E+00
  0.4568E+00
  0.4470E+00
  0.4526E+00
  0.4839E+00
  0.5407E+00
  0.6133E+00
  0.6921E+00
  0.7604E+00
  0.7807E+00
  0.7696E+00
  0.7075E+00
  0.6141E+00
  0.5322E+00
  0.4894E+00
  0.4870E+00
  0.4940E+00
  0.5108E+00
  0.5323E+00
  0.5528E+00
  0.5563E+00
  0.5049E+00
  0.5690E+00
  0.1865E+01
  0.1865E+01
  0.1865E+01
  0.1865E+01
  0.1865E+01
  0.1865E+01
  0.1865E+01
  0.1864E+01
  0.1863E+01
  0.1859E+01
  0.1849E+01
  0.1826E+01
  0.1786E+01
  0.1728E+01
  0.1659E+01
  0.1583E+01
  0.1507E+01
  0.1431E+01
  0.1358E+01
  0.1287E+01
  0.1218E+01
  0.1153E+01
  0.1091E+01
  0.1032E+01
  0.9763E+00
  0.9232E+00
  0.8728E+00
  0.8249E+00
  0.7795E+00
  0.7363E+00
  0.6953E+00
  0.6563E+00
  0.6193E+00
  0.5844E+00
  0.5511E+00
  0.5194E+00
  0.4885E+00
  0.4559E+00
  0.4451E+00
  0.4495E+00
  0.4761E+00
  0.5279E+00
  0.5959E+00
  0.6724E+00
  0.7446E+00
  0.7693E+00
  0.7613E+00
  0.7041E+00
  0.6112E+00
  0.5304E+00
  0.4871E+00
  0.4836E+00
  0.4888E+00
  0.5038E+00
  0.5231E+00
  0.5423E+00
  0.5511E+00
  0.5313E+00
  0.4324E+00
  0.4165E+00
  0.1775E+01
  0.1775E+01
  0.1775E+01
  0.1775E+01
  0.1775E+01
  0.1775E+01
  0.1775E+01
  0.1775E+01
  0.1774E+01
  0.1771E+01
  0.1762E+01
  0.1742E+01
  0.1706E+01
  0.1652E+01
  0.1586E+01
  0.1514E+01
  0.1441E+01
  0.1368E+01
  0.1297E+01
  0.1228E+01
  0.1163E+01
  0.1100E+01
  0.1040E+01
  0.9830E+00
  0.9291E+00
  0.8779E+00
  0.8294E+00
  0.7833E+00
  0.7396E+00
  0.6981E+00
  0.6587E+00
  0.6212E+00
  0.5858E+00
  0.5520E+00
  0.5198E+00
  0.4887E+00
  0.4557E+00
  0.4446E+00
  0.4482E+00
  0.4718E+00
  0.5198E+00
  0.5834E+00
  0.6573E+00
  0.7318E+00
  0.7617E+00
  0.7552E+00
  0.7001E+00
  0.6058E+00
  0.5258E+00
  0.4857E+00
  0.4823E+00
  0.4862E+00
  0.4992E+00
  0.5162E+00
  0.5340E+00
  0.5436E+00
  0.5334E+00
  0.4682E+00
  0.3637E+00
  0.3128E+00
  0.1690E+01
  0.1690E+01
  0.1690E+01
  0.1690E+01
  0.1690E+01
  0.1690E+01
  0.1690E+01
  0.1689E+01
  0.1689E+01
  0.1686E+01
  0.1679E+01
  0.1662E+01
  0.1629E+01
  0.1580E+01
  0.1518E+01
  0.1449E+01
  0.1378E+01
  0.1308E+01
  0.1240E+01
  0.1173E+01
  0.1110E+01
  0.1049E+01
  0.9914E+00
  0.9366E+00
  0.8845E+00
  0.8352E+00
  0.7884E+00
  0.7440E+00
  0.7019E+00
  0.6620E+00
  0.6241E+00
  0.5881E+00
  0.5538E+00
  0.5211E+00
  0.4893E+00
  0.4553E+00
  0.4440E+00
  0.4476E+00
  0.4703E+00
  0.5144E+00
  0.5725E+00
  0.6421E+00
  0.7179E+00
  0.7583E+00
  0.7536E+00
  0.7000E+00
  0.6032E+00
  0.5228E+00
  0.4863E+00
  0.4829E+00
  0.4862E+00
  0.4976E+00
  0.5121E+00
  0.5275E+00
  0.5367E+00
  0.5315E+00
  0.4808E+00
  0.3885E+00
  0.3030E+00
  0.2536E+00
  0.1609E+01
  0.1609E+01
  0.1609E+01
  0.1609E+01
  0.1609E+01
  0.1609E+01
  0.1609E+01
  0.1609E+01
  0.1608E+01
  0.1606E+01
  0.1600E+01
  0.1585E+01
  0.1556E+01
  0.1511E+01
  0.1453E+01
  0.1387E+01
  0.1319E+01
  0.1252E+01
  0.1186E+01
  0.1122E+01
  0.1060E+01
  0.1002E+01
  0.9457E+00
  0.8927E+00
  0.8425E+00
  0.7949E+00
  0.7498E+00
  0.7070E+00
  0.6664E+00
  0.6279E+00
  0.5914E+00
  0.5565E+00
  0.5233E+00
  0.4909E+00
  0.4565E+00
  0.4448E+00
  0.4478E+00
  0.4684E+00
  0.5119E+00
  0.5676E+00
  0.6312E+00
  0.7011E+00
  0.7488E+00
  0.7494E+00
  0.7033E+00
  0.6055E+00
  0.5246E+00
  0.4896E+00
  0.4857E+00
  0.4888E+00
  0.4985E+00
  0.5106E+00
  0.5235E+00
  0.5322E+00
  0.5291E+00
  0.4879E+00
  0.4034E+00
  0.3198E+00
  0.2567E+00
  0.2214E+00
  0.1533E+01
  0.1533E+01
  0.1533E+01
  0.1533E+01
  0.1533E+01
  0.1533E+01
  0.1533E+01
  0.1533E+01
  0.1533E+01
  0.1531E+01
  0.1526E+01
  0.1513E+01
  0.1488E+01
  0.1446E+01
  0.1392E+01
  0.1329E+01
  0.1264E+01
  0.1199E+01
  0.1135E+01
  0.1073E+01
  0.1014E+01
  0.9568E+00
  0.9029E+00
  0.8516E+00
  0.8031E+00
  0.7571E+00
  0.7135E+00
  0.6722E+00
  0.6330E+00
  0.5958E+00
  0.5603E+00
  0.5265E+00
  0.4932E+00
  0.4593E+00
  0.4468E+00
  0.4497E+00
  0.4719E+00
  0.5140E+00
  0.5657E+00
  0.6279E+00
  0.6966E+00
  0.7407E+00
  0.7432E+00
  0.7047E+00
  0.6110E+00
  0.5302E+00
  0.4956E+00
  0.4909E+00
  0.4936E+00
  0.5012E+00
  0.5107E+00
  0.5214E+00
  0.5293E+00
  0.5274E+00
  0.4926E+00
  0.4138E+00
  0.3323E+00
  0.2680E+00
  0.2257E+00
  0.2066E+00
  0.1463E+01
  0.1463E+01
  0.1463E+01
  0.1463E+01
  0.1463E+01
  0.1463E+01
  0.1463E+01
  0.1463E+01
  0.1462E+01
  0.1461E+01
  0.1457E+01
  0.1446E+01
  0.1423E+01
  0.1386E+01
  0.1334E+01
  0.1275E+01
  0.1212E+01
  0.1149E+01
  0.1088E+01
  0.1028E+01
  0.9704E+00
  0.9155E+00
  0.8632E+00
  0.8136E+00
  0.7666E+00
  0.7220E+00
  0.6798E+00
  0.6398E+00
  0.6017E+00
  0.5656E+00
  0.5310E+00
  0.4964E+00
  0.4637E+00
  0.4506E+00
  0.4537E+00
  0.4755E+00
  0.5209E+00
  0.5769E+00
  0.6329E+00
  0.6960E+00
  0.7417E+00
  0.7427E+00
  0.7086E+00
  0.6184E+00
  0.5371E+00
  0.5020E+00
  0.4973E+00
  0.4997E+00
  0.5053E+00
  0.5121E+00
  0.5205E+00
  0.5275E+00
  0.5258E+00
  0.4949E+00
  0.4208E+00
  0.3414E+00
  0.2770E+00
  0.2326E+00
  0.2090E+00
  0.2015E+00
  0.1399E+01
  0.1399E+01
  0.1399E+01
  0.1399E+01
  0.1399E+01
  0.1399E+01
  0.1399E+01
  0.1399E+01
  0.1398E+01
  0.1397E+01
  0.1394E+01
  0.1385E+01
  0.1365E+01
  0.1331E+01
  0.1283E+01
  0.1226E+01
  0.1166E+01
  0.1106E+01
  0.1046E+01
  0.9878E+00
  0.9320E+00
  0.8787E+00
  0.8278E+00
  0.7796E+00
  0.7339E+00
  0.6905E+00
  0.6494E+00
  0.6104E+00
  0.5732E+00
  0.5373E+00
  0.5013E+00
  0.4720E+00
  0.4574E+00
  0.4604E+00
  0.4836E+00
  0.5263E+00
  0.5819E+00
  0.6476E+00
  0.7128E+00
  0.7481E+00
  0.7458E+00
  0.7130E+00
  0.6252E+00
  0.5428E+00
  0.5072E+00
  0.5031E+00
  0.5050E+00
  0.5092E+00
  0.5143E+00
  0.5209E+00
  0.5268E+00
  0.5249E+00
  0.4952E+00
  0.4237E+00
  0.3471E+00
  0.2837E+00
  0.2384E+00
  0.2122E+00
  0.2023E+00
  0.2002E+00
  0.1346E+01
  0.1346E+01
  0.1346E+01
  0.1346E+01
  0.1346E+01
  0.1346E+01
  0.1346E+01
  0.1346E+01
  0.1345E+01
  0.1345E+01
  0.1342E+01
  0.1334E+01
  0.1316E+01
  0.1285E+01
  0.1241E+01
  0.1187E+01
  0.1128E+01
  0.1070E+01
  0.1012E+01
  0.9552E+00
  0.9008E+00
  0.8487E+00
  0.7990E+00
  0.7517E+00
  0.7067E+00
  0.6640E+00
  0.6232E+00
  0.5842E+00
  0.5464E+00
  0.5120E+00
  0.4863E+00
  0.4701E+00
  0.4723E+00
  0.4957E+00
  0.5412E+00
  0.5937E+00
  0.6512E+00
  0.7165E+00
  0.7550E+00
  0.7510E+00
  0.7121E+00
  0.6254E+00
  0.5459E+00
  0.5102E+00
  0.5069E+00
  0.5085E+00
  0.5117E+00
  0.5158E+00
  0.5216E+00
  0.5270E+00
  0.5250E+00
  0.4962E+00
  0.4255E+00
  0.3498E+00
  0.2878E+00
  0.2427E+00
  0.2151E+00
  0.2033E+00
  0.2004E+00
  0.2000E+00
  0.1306E+01
  0.1306E+01
  0.1306E+01
  0.1306E+01
  0.1306E+01
  0.1306E+01
  0.1306E+01
  0.1305E+01
  0.1305E+01
  0.1305E+01
  0.1302E+01
  0.1296E+01
  0.1280E+01
  0.1252E+01
  0.1211E+01
  0.1160E+01
  0.1104E+01
  0.1046E+01
  0.9886E+00
  0.9327E+00
  0.8787E+00
  0.8270E+00
  0.7776E+00
  0.7303E+00
  0.6853E+00
  0.6426E+00
  0.6027E+00
  0.5661E+00
  0.5342E+00
  0.5075E+00
  0.4890E+00
  0.4912E+00
  0.5145E+00
  0.5599E+00
  0.6152E+00
  0.6723E+00
  0.7215E+00
  0.7514E+00
  0.7501E+00
  0.7109E+00
  0.6204E+00
  0.5432E+00
  0.5102E+00
  0.5083E+00
  0.5099E+00
  0.5127E+00
  0.5161E+00
  0.5217E+00
  0.5271E+00
  0.5253E+00
  0.4975E+00
  0.4275E+00
  0.3519E+00
  0.2901E+00
  0.2456E+00
  0.2174E+00
  0.2043E+00
  0.2006E+00
  0.2001E+00
  0.2000E+00
  0.1294E+01
  0.1294E+01
  0.1294E+01
  0.1294E+01
  0.1294E+01
  0.1294E+01
  0.1294E+01
  0.1294E+01
  0.1294E+01
  0.1293E+01
  0.1292E+01
  0.1286E+01
  0.1273E+01
  0.1247E+01
  0.1207E+01
  0.1157E+01
  0.1101E+01
  0.1043E+01
  0.9859E+00
  0.9296E+00
  0.8750E+00
  0.8223E+00
  0.7720E+00
  0.7244E+00
  0.6796E+00
  0.6381E+00
  0.5996E+00
  0.5649E+00
  0.5357E+00
  0.5161E+00
  0.5187E+00
  0.5426E+00
  0.5861E+00
  0.6382E+00
  0.6951E+00
  0.7467E+00
  0.7600E+00
  0.7484E+00
  0.7011E+00
  0.6136E+00
  0.5378E+00
  0.5071E+00
  0.5069E+00
  0.5098E+00
  0.5130E+00
  0.5162E+00
  0.5214E+00
  0.5268E+00
  0.5253E+00
  0.4979E+00
  0.4281E+00
  0.3530E+00
  0.2916E+00
  0.2472E+00
  0.2190E+00
  0.2052E+00
  0.2009E+00
  0.2001E+00
  0.2000E+00
  0.2000E+00
  0.1295E+01
  0.1295E+01
  0.1295E+01
  0.1295E+01
  0.1295E+01
  0.1295E+01
  0.1295E+01
  0.1295E+01
  0.1295E+01
  0.1294E+01
  0.1293E+01
  0.1287E+01
  0.1275E+01
  0.1251E+01
  0.1213E+01
  0.1164E+01
  0.1108E+01
  0.1050E+01
  0.9921E+00
  0.9346E+00
  0.8787E+00
  0.8250E+00
  0.7742E+00
  0.7264E+00
  0.6818E+00
  0.6406E+00
  0.6037E+00
  0.5727E+00
  0.5541E+00
  0.5576E+00
  0.5807E+00
  0.6221E+00
  0.6690E+00
  0.7180E+00
  0.7633E+00
  0.7728E+00
  0.7565E+00
  0.6966E+00
  0.6053E+00
  0.5309E+00
  0.5019E+00
  0.5028E+00
  0.5081E+00
  0.5129E+00
  0.5165E+00
  0.5215E+00
  0.5264E+00
  0.5248E+00
  0.4977E+00
  0.4282E+00
  0.3533E+00
  0.2922E+00
  0.2481E+00
  0.2198E+00
  0.2058E+00
  0.2011E+00
  0.2001E+00
  0.2000E+00
  0.2000E+00
  0.2000E+00
  0.1305E+01
  0.1305E+01
  0.1305E+01
  0.1305E+01
  0.1305E+01
  0.1305E+01
  0.1305E+01
  0.1305E+01
  0.1305E+01
  0.1305E+01
  0.1303E+01
  0.1299E+01
  0.1289E+01
  0.1267E+01
  0.1231E+01
  0.1183E+01
  0.1127E+01
  0.1067E+01
  0.1007E+01
  0.9487E+00
  0.8917E+00
  0.8371E+00
  0.7857E+00
  0.7377E+00
  0.6937E+00
  0.6544E+00
  0.6224E+00
  0.6043E+00
  0.6077E+00
  0.6285E+00
  0.6646E+00
  0.7065E+00
  0.7481E+00
  0.7785E+00
  0.7796E+00
  0.7645E+00
  0.7008E+00
  0.6027E+00
  0.5246E+00
  0.4955E+00
  0.4971E+00
  0.5043E+00
  0.5115E+00
  0.5164E+00
  0.5218E+00
  0.5266E+00
  0.5245E+00
  0.4970E+00
  0.4281E+00
  0.3534E+00
  0.2925E+00
  0.2485E+00
  0.2203E+00
  0.2061E+00
  0.2012E+00
  0.2001E+00
  0.2000E+00
  0.2000E+00
  0.2000E+00
  0.2000E+00
  0.1326E+01
  0.1326E+01
  0.1326E+01
  0.1326E+01
  0.1326E+01
  0.1326E+01
  0.1326E+01
  0.1326E+01
  0.1326E+01
  0.1325E+01
  0.1324E+01
  0.1321E+01
  0.1311E+01
  0.1291E+01
  0.1256E+01
  0.1207E+01
  0.1150E+01
  0.1088E+01
  0.1027E+01
  0.9662E+00
  0.9081E+00
  0.8531E+00
  0.8018E+00
  0.7550E+00
  0.7140E+00
  0.6818E+00
  0.6633E+00
  0.6656E+00
  0.6826E+00
  0.7124E+00
  0.7467E+00
  0.7785E+00
  0.7940E+00
  0.7882E+00
  0.7691E+00
  0.7044E+00
  0.6063E+00
  0.5232E+00
  0.4897E+00
  0.4911E+00
  0.4993E+00
  0.5089E+00
  0.5155E+00
  0.5217E+00
  0.5269E+00
  0.5249E+00
  0.4972E+00
  0.4279E+00
  0.3533E+00
  0.2926E+00
  0.2487E+00
  0.2206E+00
  0.2063E+00
  0.2013E+00
  0.2002E+00
  0.2000E+00
  0.2000E+00
  0.2000E+00
  0.2000E+00
  0.2000E+00
  0.1345E+01
  0.1345E+01
  0.1345E+01
  0.1345E+01
  0.1345E+01
  0.1345E+01
  0.1345E+01
  0.1345E+01
  0.1345E+01
  0.1345E+01
  0.1344E+01
  0.1341E+01
  0.1332E+01
  0.1313E+01
  0.1279E+01
  0.1230E+01
  0.1171E+01
  0.1108E+01
  0.1044E+01
  0.9819E+00
  0.9231E+00
  0.8689E+00
  0.8197E+00
  0.7773E+00
  0.7444E+00
  0.7250E+00
  0.7248E+00
  0.7383E+00
  0.7621E+00
  0.7871E+00
  0.8025E+00
  0.8028E+00
  0.7960E+00
  0.7731E+00
  0.7068E+00
  0.6113E+00
  0.5260E+00
  0.4864E+00
  0.4861E+00
  0.4937E+00
  0.5054E+00
  0.5142E+00
  0.5212E+00
  0.5269E+00
  0.5251E+00
  0.4976E+00
  0.4282E+00
  0.3534E+00
  0.2926E+00
  0.2488E+00
  0.2207E+00
  0.2064E+00
  0.2013E+00
  0.2002E+00
  0.2000E+00
  0.2000E+00
  0.2000E+00
  0.2000E+00
  0.2000E+00
  0.2000E+00
  0.1357E+01
  0.1357E+01
  0.1357E+01
  0.1357E+01
  0.1357E+01
  0.1357E+01
  0.1357E+01
  0.1357E+01
  0.1356E+01
  0.1356E+01
  0.1355E+01
  0.1352E+01
  0.1344E+01
  0.1325E+01
  0.1292E+01
  0.1243E+01
  0.1184E+01
  0.1119E+01
  0.1055E+01
  0.9931E+00
  0.9365E+00
  0.8856E+00
  0.8421E+00
  0.8086E+00
  0.7875E+00
  0.7840E+00
  0.7922E+00
  0.8081E+00
  0.8179E+00
  0.8161E+00
  0.8087E+00
  0.7978E+00
  0.7682E+00
  0.7029E+00
  0.6138E+00
  0.5304E+00
  0.4856E+00
  0.4833E+00
  0.4887E+00
  0.5015E+00
  0.5124E+00
  0.5209E+00
  0.5269E+00
  0.5251E+00
  0.4975E+00
  0.4282E+00
  0.3535E+00
  0.2926E+00
  0.2488E+00
  0.2208E+00
  0.2065E+00
  0.2013E+00
  0.2002E+00
  0.2000E+00
  0.2000E+00
  0.2000E+00
  0.2000E+00
  0.2000E+00
  0.2000E+00
  0.2000E+00
  0.1359E+01
  0.1359E+01
  0.1359E+01
  0.1359E+01
  0.1359E+01
  0.1359E+01
  0.1359E+01
  0.1359E+01
  0.1358E+01
  0.1358E+01
  0.1357E+01
  0.1354E+01
  0.1346E+01
  0.1327E+01
  0.1293E+01
  0.1244E+01
  0.1185E+01
  0.1122E+01
  0.1060E+01
  0.1003E+01
  0.9516E+00
  0.9078E+00
  0.8740E+00
  0.8511E+00
  0.8404E+00
  0.8406E+00
  0.8395E+00
  0.8332E+00
  0.8240E+00
  0.8118E+00
  0.7914E+00
  0.7518E+00
  0.6887E+00
  0.6090E+00
  0.5325E+00
  0.4871E+00
  0.4821E+00
  0.4861E+00
  0.4986E+00
  0.5108E+00
  0.5206E+00
  0.5269E+00
  0.5251E+00
  0.4973E+00
  0.4278E+00
  0.3533E+00
  0.2926E+00
  0.2488E+00
  0.2208E+00
  0.2065E+00
  0.2014E+00
  0.2002E+00
  0.2000E+00
  0.2000E+00
  0.2000E+00
  0.2000E+00
  0.2000E+00
  0.2000E+00
  0.2000E+00
  0.2000E+00
  0.1356E+01
  0.1356E+01
  0.1356E+01
  0.1356E+01
  0.1356E+01
  0.1356E+01
  0.1356E+01
  0.1356E+01
  0.1356E+01
  0.1355E+01
  0.1354E+01
  0.1351E+01
  0.1342E+01
  0.1322E+01
  0.1288E+01
  0.1240E+01
  0.1181E+01
  0.1120E+01
  0.1061E+01
  0.1009E+01
  0.9639E+00
  0.9277E+00
  0.9001E+00
  0.8800E+00
  0.8652E+00
  0.8531E+00
  0.8418E+00
  0.8267E+00
  0.8043E+00
  0.7696E+00
  0.7217E+00
  0.6619E+00
  0.5935E+00
  0.5290E+00
  0.4898E+00
  0.4833E+00
  0.4861E+00
  0.4973E+00
  0.5105E+00
  0.5213E+00
  0.5275E+00
  0.5251E+00
  0.4967E+00
  0.4275E+00
  0.3529E+00
  0.2922E+00
  0.2486E+00
  0.2206E+00
  0.2064E+00
  0.2013E+00
  0.2002E+00
  0.2000E+00
  0.2000E+00
  0.2000E+00
  0.2000E+00
  0.2000E+00
  0.2000E+00
  0.2000E+00
  0.2000E+00
  0.2000E+00
  0.1328E+01
  0.1328E+01
  0.1328E+01
  0.1328E+01
  0.1328E+01
  0.1328E+01
  0.1328E+01
  0.1328E+01
  0.1328E+01
  0.1328E+01
  0.1326E+01
  0.1321E+01
  0.1310E+01
  0.1289E+01
  0.1255E+01
  0.1209E+01
  0.1156E+01
  0.1103E+01
  0.1051E+01
  0.1004E+01
  0.9622E+00
  0.9277E+00
  0.8998E+00
  0.8772E+00
  0.8577E+00
  0.8375E+00
  0.8101E+00
  0.7753E+00
  0.7322E+00
  0.6827E+00
  0.6278E+00
  0.5703E+00
  0.5191E+00
  0.4917E+00
  0.4867E+00
  0.4894E+00
  0.4992E+00
  0.5119E+00
  0.5235E+00
  0.5295E+00
  0.5259E+00
  0.4954E+00
  0.4262E+00
  0.3522E+00
  0.2917E+00
  0.2482E+00
  0.2204E+00
  0.2063E+00
  0.2013E+00
  0.2002E+00
  0.2000E+00
  0.2000E+00
  0.2000E+00
  0.2000E+00
  0.2000E+00
  0.2000E+00
  0.2000E+00
  0.2000E+00
  0.2000E+00
  0.2000E+00
  0.1233E+01
  0.1233E+01
  0.1233E+01
  0.1233E+01
  0.1233E+01
  0.1233E+01
  0.1233E+01
  0.1233E+01
  0.1233E+01
  0.1232E+01
  0.1229E+01
  0.1223E+01
  0.1211E+01
  0.1190E+01
  0.1159E+01
  0.1121E+01
  0.1078E+01
  0.1034E+01
  0.9947E+00
  0.9591E+00
  0.9261E+00
  0.8941E+00
  0.8626E+00
  0.8317E+00
  0.8003E+00
  0.7650E+00
  0.7265E+00
  0.6841E+00
  0.6384E+00
  0.5908E+00
  0.5450E+00
  0.5103E+00
  0.4955E+00
  0.4914E+00
  0.4945E+00
  0.5038E+00
  0.5160E+00
  0.5274E+00
  0.5329E+00
  0.5276E+00
  0.4943E+00
  0.4238E+00
  0.3502E+00
  0.2903E+00
  0.2473E+00
  0.2199E+00
  0.2061E+00
  0.2013E+00
  0.2002E+00
  0.2000E+00
  0.2000E+00
  0.2000E+00
  0.2000E+00
  0.2000E+00
  0.2000E+00
  0.2000E+00
  0.2000E+00
  0.2000E+00
  0.2000E+00
  0.2000E+00
  0.1090E+01
  0.1090E+01
  0.1090E+01
  0.1090E+01