# vtk DataFile Version 3.0
vtk output
ASCII
DATASET RECTILINEAR_GRID
DIMENSIONS          61          61 1
X_COORDINATES    61 double
  0.0000E+00
  0.1667E+00
  0.3333E+00
  0.5000E+00
  0.6667E+00
  0.8333E+00
  0.1000E+01
  0.1167E+01
  0.1333E+01
  0.1500E+01
  0.1667E+01
  0.1833E+01
  0.2000E+01
  0.2167E+01
  0.2333E+01
  0.2500E+01
  0.2667E+01
  0.2833E+01
  0.3000E+01
  0.3167E+01
  0.3333E+01
  0.3500E+01
  0.3667E+01
  0.3833E+01
  0.4000E+01
  0.4167E+01
  0.4333E+01
  0.4500E+01
  0.4667E+01
  0.4833E+01
  0.5000E+01
  0.5167E+01
  0.5333E+01
  0.5500E+01
  0.5667E+01
  0.5833E+01
  0.6000E+01
  0.6167E+01
  0.6333E+01
  0.6500E+01
  0.6667E+01
  0.6833E+01
  0.7000E+01
  0.7167E+01
  0.7333E+01
  0.7500E+01
  0.7667E+01
  0.7833E+01
  0.8000E+01
  0.8167E+01
  0.8333E+01
  0.8500E+01
  0.8667E+01
  0.8833E+01
  0.9000E+01
  0.9167E+01
  0.9333E+01
  0.9500E+01
  0.9667E+01
  0.9833E+01
  0.1000E+02
Y_COORDINATES    61 double
  0.0000E+00
  0.1667E+00
  0.3333E+00
  0.5000E+00
  0.6667E+00
  0.8333E+00
  0.1000E+01
  0.1167E+01
  0.1333E+01
  0.1500E+01
  0.1667E+01
  0.1833E+01
  0.2000E+01
  0.2167E+01
  0.2333E+01
  0.2500E+01
  0.2667E+01
  0.2833E+01
  0.3000E+01
  0.3167E+01
  0.3333E+01
  0.3500E+01
  0.3667E+01
  0.3833E+01
  0.4000E+01
  0.4167E+01
  0.4333E+01
  0.4500E+01
  0.4667E+01
  0.4833E+01
  0.5000E+01
  0.5167E+01
  0.5333E+01
  0.5500E+01
  0.5667E+01
  0.5833E+01
  0.6000E+01
  0.6167E+01
  0.6333E+01
  0.6500E+01
  0.6667E+01
  0.6833E+01
  0.7000E+01
  0.7167E+01
  0.7333E+01
  0.7500E+01
  0.7667E+01
  0.7833E+01
  0.8000E+01
  0.8167E+01
  0.8333E+01
  0.8500E+01
  0.8667E+01
  0.8833E+01
  0.9000E+01
  0.9167E+01
  0.9333E+01
  0.9500E+01
  0.9667E+01
  0.9833E+01
  0.1000E+02
Z_COORDINATES 1 double
0
CELL_DATA                 3600
FIELD FieldData 4
density 1                 3600 double
  0.1938E+01
  0.1937E+01
  0.1936E+01
  0.1933E+01
  0.1924E+01
  0.1906E+01
  0.1876E+01
  0.1834E+01
  0.1783E+01
  0.1727E+01
  0.1670E+01
  0.1612E+01
  0.1556E+01
  0.1501E+01
  0.1448E+01
  0.1396E+01
  0.1345E+01
  0.1297E+01
  0.1250E+01
  0.1205E+01
  0.1162E+01
  0.1120E+01
  0.1080E+01
  0.1042E+01
  0.1005E+01
  0.9694E+00
  0.9354E+00
  0.9026E+00
  0.8712E+00
  0.8409E+00
  0.8118E+00
  0.7838E+00
  0.7569E+00
  0.7310E+00
  0.7061E+00
  0.6823E+00
  0.6593E+00
  0.6374E+00
  0.6163E+00
  0.5963E+00
  0.5773E+00
  0.5593E+00
  0.5423E+00
  0.5266E+00
  0.5127E+00
  0.5019E+00
  0.4952E+00
  0.4944E+00
  0.4964E+00
  0.5022E+00
  0.5094E+00
  0.5164E+00
  0.5232E+00
  0.5492E+00
  0.6811E+00
  0.1096E+01
  0.1883E+01
  0.1732E+01
  0.1431E+01
  0.1321E+01
  0.1937E+01
  0.1937E+01
  0.1935E+01
  0.1932E+01
  0.1923E+01
  0.1905E+01
  0.1875E+01
  0.1833E+01
  0.1782E+01
  0.1726E+01
  0.1669E+01
  0.1612E+01
  0.1556E+01
  0.1501E+01
  0.1447E+01
  0.1395E+01
  0.1345E+01
  0.1296E+01
  0.1250E+01
  0.1205E+01
  0.1161E+01
  0.1120E+01
  0.1080E+01
  0.1041E+01
  0.1004E+01
  0.9691E+00
  0.9350E+00
  0.9023E+00
  0.8708E+00
  0.8405E+00
  0.8114E+00
  0.7834E+00
  0.7565E+00
  0.7306E+00
  0.7058E+00
  0.6819E+00
  0.6590E+00
  0.6370E+00
  0.6160E+00
  0.5959E+00
  0.5769E+00
  0.5589E+00
  0.5419E+00
  0.5262E+00
  0.5123E+00
  0.5015E+00
  0.4947E+00
  0.4939E+00
  0.4957E+00
  0.5014E+00
  0.5088E+00
  0.5160E+00
  0.5232E+00
  0.5499E+00
  0.6827E+00
  0.1102E+01
  0.1890E+01
  0.1735E+01
  0.1433E+01
  0.1320E+01
  0.1935E+01
  0.1935E+01
  0.1934E+01
  0.1930E+01
  0.1922E+01
  0.1904E+01
  0.1874E+01
  0.1832E+01
  0.1781E+01
  0.1725E+01
  0.1668E+01
  0.1611E+01
  0.1555E+01
  0.1500E+01
  0.1446E+01
  0.1394E+01
  0.1344E+01
  0.1295E+01
  0.1249E+01
  0.1204E+01
  0.1160E+01
  0.1119E+01
  0.1079E+01
  0.1041E+01
  0.1004E+01
  0.9683E+00
  0.9343E+00
  0.9015E+00
  0.8701E+00
  0.8398E+00
  0.8107E+00
  0.7827E+00
  0.7558E+00
  0.7299E+00
  0.7051E+00
  0.6812E+00
  0.6582E+00
  0.6363E+00
  0.6152E+00
  0.5952E+00
  0.5762E+00
  0.5581E+00
  0.5412E+00
  0.5254E+00
  0.5115E+00
  0.5007E+00
  0.4937E+00
  0.4928E+00
  0.4944E+00
  0.5000E+00
  0.5075E+00
  0.5152E+00
  0.5232E+00
  0.5519E+00
  0.6885E+00
  0.1115E+01
  0.1898E+01
  0.1735E+01
  0.1430E+01
  0.1328E+01
  0.1933E+01
  0.1933E+01
  0.1932E+01
  0.1928E+01
  0.1920E+01
  0.1902E+01
  0.1872E+01
  0.1830E+01
  0.1779E+01
  0.1724E+01
  0.1667E+01
  0.1610E+01
  0.1553E+01
  0.1498E+01
  0.1445E+01
  0.1393E+01
  0.1343E+01
  0.1294E+01
  0.1247E+01
  0.1202E+01
  0.1159E+01
  0.1118E+01
  0.1078E+01
  0.1039E+01
  0.1003E+01
  0.9671E+00
  0.9331E+00
  0.9004E+00
  0.8689E+00
  0.8387E+00
  0.8096E+00
  0.7816E+00
  0.7547E+00
  0.7288E+00
  0.7040E+00
  0.6801E+00
  0.6571E+00
  0.6352E+00
  0.6141E+00
  0.5941E+00
  0.5751E+00
  0.5570E+00
  0.5401E+00
  0.5243E+00
  0.5103E+00
  0.4994E+00
  0.4922E+00
  0.4912E+00
  0.4925E+00
  0.4979E+00
  0.5057E+00
  0.5142E+00
  0.5235E+00
  0.5552E+00
  0.6980E+00
  0.1136E+01
  0.1910E+01
  0.1732E+01
  0.1425E+01
  0.1333E+01
  0.1930E+01
  0.1930E+01
  0.1929E+01
  0.1925E+01
  0.1917E+01
  0.1899E+01
  0.1870E+01
  0.1828E+01
  0.1777E+01
  0.1722E+01
  0.1665E+01
  0.1608E+01
  0.1552E+01
  0.1497E+01
  0.1443E+01
  0.1391E+01
  0.1341E+01
  0.1292E+01
  0.1246E+01
  0.1201E+01
  0.1158E+01
  0.1116E+01
  0.1076E+01
  0.1038E+01
  0.1001E+01
  0.9655E+00
  0.9315E+00
  0.8988E+00
  0.8674E+00
  0.8371E+00
  0.8080E+00
  0.7801E+00
  0.7532E+00
  0.7273E+00
  0.7024E+00
  0.6786E+00
  0.6556E+00
  0.6337E+00
  0.6126E+00
  0.5926E+00
  0.5735E+00
  0.5555E+00
  0.5385E+00
  0.5228E+00
  0.5087E+00
  0.4977E+00
  0.4901E+00
  0.4888E+00
  0.4898E+00
  0.4953E+00
  0.5035E+00
  0.5133E+00
  0.5246E+00
  0.5605E+00
  0.7125E+00
  0.1167E+01
  0.1923E+01
  0.1722E+01
  0.1416E+01
  0.1330E+01
  0.1926E+01
  0.1926E+01
  0.1925E+01
  0.1921E+01
  0.1913E+01
  0.1896E+01
  0.1867E+01
  0.1825E+01
  0.1775E+01
  0.1719E+01
  0.1662E+01
  0.1605E+01
  0.1549E+01
  0.1494E+01
  0.1441E+01
  0.1389E+01
  0.1339E+01
  0.1290E+01
  0.1243E+01
  0.1199E+01
  0.1155E+01
  0.1114E+01
  0.1074E+01
  0.1036E+01
  0.9988E+00
  0.9634E+00
  0.9294E+00
  0.8968E+00
  0.8653E+00
  0.8351E+00
  0.8060E+00
  0.7781E+00
  0.7512E+00
  0.7253E+00
  0.7005E+00
  0.6766E+00
  0.6537E+00
  0.6317E+00
  0.6107E+00
  0.5906E+00
  0.5716E+00
  0.5535E+00
  0.5365E+00
  0.5207E+00
  0.5066E+00
  0.4954E+00
  0.4875E+00
  0.4856E+00
  0.4865E+00
  0.4920E+00
  0.5009E+00
  0.5125E+00
  0.5270E+00
  0.5699E+00
  0.7350E+00
  0.1210E+01
  0.1935E+01
  0.1709E+01
  0.1405E+01
  0.1327E+01
  0.1921E+01
  0.1921E+01
  0.1920E+01
  0.1917E+01
  0.1908E+01
  0.1892E+01
  0.1863E+01
  0.1822E+01
  0.1771E+01
  0.1716E+01
  0.1659E+01
  0.1602E+01
  0.1546E+01
  0.1491E+01
  0.1438E+01
  0.1386E+01
  0.1336E+01
  0.1287E+01
  0.1241E+01
  0.1196E+01
  0.1153E+01
  0.1111E+01
  0.1071E+01
  0.1033E+01
  0.9962E+00
  0.9609E+00
  0.9269E+00
  0.8942E+00
  0.8628E+00
  0.8326E+00
  0.8036E+00
  0.7756E+00
  0.7487E+00
  0.7229E+00
  0.6980E+00
  0.6742E+00
  0.6513E+00
  0.6293E+00
  0.6082E+00
  0.5882E+00
  0.5691E+00
  0.5510E+00
  0.5340E+00
  0.5182E+00
  0.5039E+00
  0.4925E+00
  0.4842E+00
  0.4817E+00
  0.4826E+00
  0.4884E+00
  0.4981E+00
  0.5126E+00
  0.5327E+00
  0.5860E+00
  0.7676E+00
  0.1264E+01
  0.1942E+01
  0.1687E+01
  0.1387E+01
  0.1327E+01
  0.1915E+01
  0.1915E+01
  0.1914E+01
  0.1911E+01
  0.1903E+01
  0.1886E+01
  0.1858E+01
  0.1817E+01
  0.1767E+01
  0.1712E+01
  0.1655E+01
  0.1599E+01
  0.1542E+01
  0.1488E+01
  0.1434E+01
  0.1382E+01
  0.1332E+01
  0.1284E+01
  0.1237E+01
  0.1192E+01
  0.1149E+01
  0.1108E+01
  0.1068E+01
  0.1030E+01
  0.9930E+00
  0.9577E+00
  0.9238E+00
  0.8911E+00
  0.8597E+00
  0.8296E+00
  0.8005E+00
  0.7726E+00
  0.7457E+00
  0.7199E+00
  0.6951E+00
  0.6712E+00
  0.6483E+00
  0.6263E+00
  0.6052E+00
  0.5852E+00
  0.5661E+00
  0.5480E+00
  0.5309E+00
  0.5151E+00
  0.5007E+00
  0.4889E+00
  0.4802E+00
  0.4771E+00
  0.4782E+00
  0.4843E+00
  0.4957E+00
  0.5159E+00
  0.5466E+00
  0.6129E+00
  0.8131E+00
  0.1325E+01
  0.1939E+01
  0.1653E+01
  0.1365E+01
  0.1328E+01
  0.1908E+01
  0.1908E+01
  0.1907E+01
  0.1904E+01
  0.1896E+01
  0.1880E+01
  0.1852E+01
  0.1812E+01
  0.1762E+01
  0.1708E+01
  0.1651E+01
  0.1594E+01
  0.1538E+01
  0.1483E+01
  0.1430E+01
  0.1378E+01
  0.1328E+01
  0.1280E+01
  0.1233E+01
  0.1188E+01
  0.1145E+01
  0.1104E+01
  0.1064E+01
  0.1026E+01
  0.9892E+00
  0.9539E+00
  0.9200E+00
  0.8874E+00
  0.8561E+00
  0.8259E+00
  0.7969E+00
  0.7690E+00
  0.7421E+00
  0.7163E+00
  0.6915E+00
  0.6676E+00
  0.6447E+00
  0.6227E+00
  0.6016E+00
  0.5815E+00
  0.5624E+00
  0.5443E+00
  0.5272E+00
  0.5112E+00
  0.4967E+00
  0.4845E+00
  0.4751E+00
  0.4720E+00
  0.4733E+00
  0.4798E+00
  0.4958E+00
  0.5268E+00
  0.5692E+00
  0.6456E+00
  0.8612E+00
  0.1387E+01
  0.1919E+01
  0.1604E+01
  0.1341E+01
  0.1325E+01
  0.1900E+01
  0.1900E+01
  0.1899E+01
  0.1896E+01
  0.1889E+01
  0.1873E+01
  0.1846E+01
  0.1806E+01
  0.1757E+01
  0.1702E+01
  0.1646E+01
  0.1589E+01
  0.1533E+01
  0.1478E+01
  0.1425E+01
  0.1373E+01
  0.1323E+01
  0.1275E+01
  0.1228E+01
  0.1184E+01
  0.1141E+01
  0.1099E+01
  0.1060E+01
  0.1021E+01
  0.9847E+00
  0.9495E+00
  0.9156E+00
  0.8830E+00
  0.8517E+00
  0.8216E+00
  0.7926E+00
  0.7647E+00
  0.7379E+00
  0.7121E+00
  0.6872E+00
  0.6634E+00
  0.6404E+00
  0.6184E+00
  0.5973E+00
  0.5772E+00
  0.5580E+00
  0.5398E+00
  0.5226E+00
  0.5065E+00
  0.4917E+00
  0.4792E+00
  0.4689E+00
  0.4663E+00
  0.4679E+00
  0.4773E+00
  0.5022E+00
  0.5461E+00
  0.5996E+00
  0.6841E+00
  0.9102E+00
  0.1441E+01
  0.1877E+01
  0.1539E+01
  0.1309E+01
  0.1313E+01
  0.1891E+01
  0.1891E+01
  0.1890E+01
  0.1887E+01
  0.1880E+01
  0.1865E+01
  0.1838E+01
  0.1799E+01
  0.1750E+01
  0.1696E+01
  0.1639E+01
  0.1583E+01
  0.1527E+01
  0.1472E+01
  0.1419E+01
  0.1368E+01
  0.1318E+01
  0.1269E+01
  0.1223E+01
  0.1178E+01
  0.1135E+01
  0.1094E+01
  0.1054E+01
  0.1016E+01
  0.9795E+00
  0.9443E+00
  0.9104E+00
  0.8779E+00
  0.8466E+00
  0.8165E+00
  0.7876E+00
  0.7597E+00
  0.7329E+00
  0.7071E+00
  0.6822E+00
  0.6583E+00
  0.6354E+00
  0.6133E+00
  0.5922E+00
  0.5719E+00
  0.5527E+00
  0.5344E+00
  0.5170E+00
  0.5008E+00
  0.4855E+00
  0.4725E+00
  0.4615E+00
  0.4597E+00
  0.4628E+00
  0.4788E+00
  0.5180E+00
  0.5773E+00
  0.6397E+00
  0.7270E+00
  0.9591E+00
  0.1484E+01
  0.1813E+01
  0.1468E+01
  0.1276E+01
  0.1296E+01
  0.1880E+01
  0.1880E+01
  0.1879E+01
  0.1877E+01
  0.1870E+01
  0.1855E+01
  0.1829E+01
  0.1791E+01
  0.1743E+01
  0.1689E+01
  0.1632E+01
  0.1576E+01
  0.1520E+01
  0.1466E+01
  0.1413E+01
  0.1361E+01
  0.1311E+01
  0.1263E+01
  0.1216E+01
  0.1172E+01
  0.1129E+01
  0.1088E+01
  0.1048E+01
  0.1010E+01
  0.9734E+00
  0.9382E+00
  0.9045E+00
  0.8720E+00
  0.8407E+00
  0.8106E+00
  0.7817E+00
  0.7538E+00
  0.7270E+00
  0.7011E+00
  0.6763E+00
  0.6523E+00
  0.6293E+00
  0.6071E+00
  0.5859E+00
  0.5656E+00
  0.5461E+00
  0.5277E+00
  0.5101E+00
  0.4935E+00
  0.4779E+00
  0.4637E+00
  0.4533E+00
  0.4529E+00
  0.4614E+00
  0.4918E+00
  0.5483E+00
  0.6181E+00
  0.6813E+00
  0.7667E+00
  0.1003E+01
  0.1507E+01
  0.1728E+01
  0.1392E+01
  0.1243E+01
  0.1275E+01
  0.1868E+01
  0.1868E+01
  0.1867E+01
  0.1865E+01
  0.1859E+01
  0.1844E+01
  0.1819E+01
  0.1781E+01
  0.1734E+01
  0.1680E+01
  0.1624E+01
  0.1568E+01
  0.1512E+01
  0.1458E+01
  0.1405E+01
  0.1353E+01
  0.1304E+01
  0.1255E+01
  0.1209E+01
  0.1165E+01
  0.1122E+01
  0.1080E+01
  0.1041E+01
  0.1003E+01
  0.9664E+00
  0.9313E+00
  0.8975E+00
  0.8650E+00
  0.8338E+00
  0.8037E+00
  0.7747E+00
  0.7468E+00
  0.7200E+00
  0.6941E+00
  0.6691E+00
  0.6451E+00
  0.6219E+00
  0.5996E+00
  0.5782E+00
  0.5577E+00
  0.5381E+00
  0.5194E+00
  0.5016E+00
  0.4844E+00
  0.4683E+00
  0.4521E+00
  0.4458E+00
  0.4492E+00
  0.4699E+00
  0.5193E+00
  0.5902E+00
  0.6619E+00
  0.7181E+00
  0.7984E+00
  0.1036E+01
  0.1514E+01
  0.1619E+01
  0.1311E+01
  0.1212E+01
  0.1248E+01
  0.1855E+01
  0.1855E+01
  0.1854E+01
  0.1852E+01
  0.1846E+01
  0.1832E+01
  0.1808E+01
  0.1771E+01
  0.1724E+01
  0.1671E+01
  0.1615E+01
  0.1559E+01
  0.1503E+01
  0.1449E+01
  0.1396E+01
  0.1345E+01
  0.1295E+01
  0.1247E+01
  0.1201E+01
  0.1156E+01
  0.1113E+01
  0.1072E+01
  0.1033E+01
  0.9947E+00
  0.9582E+00
  0.9231E+00
  0.8894E+00
  0.8569E+00
  0.8256E+00
  0.7955E+00
  0.7664E+00
  0.7385E+00
  0.7115E+00
  0.6855E+00
  0.6604E+00
  0.6362E+00
  0.6129E+00
  0.5904E+00
  0.5688E+00
  0.5480E+00
  0.5281E+00
  0.5092E+00
  0.4909E+00
  0.4732E+00
  0.4556E+00
  0.4407E+00
  0.4404E+00
  0.4533E+00
  0.4943E+00
  0.5615E+00
  0.6380E+00
  0.7018E+00
  0.7467E+00
  0.8217E+00
  0.1058E+01
  0.1492E+01
  0.1501E+01
  0.1231E+01
  0.1186E+01
  0.1216E+01
  0.1840E+01
  0.1839E+01
  0.1839E+01
  0.1837E+01
  0.1831E+01
  0.1818E+01
  0.1795E+01
  0.1759E+01
  0.1713E+01
  0.1660E+01
  0.1604E+01
  0.1548E+01
  0.1493E+01
  0.1439E+01
  0.1386E+01
  0.1335E+01
  0.1285E+01
  0.1237E+01
  0.1191E+01
  0.1146E+01
  0.1104E+01
  0.1063E+01
  0.1023E+01
  0.9851E+00
  0.9486E+00
  0.9135E+00
  0.8797E+00
  0.8471E+00
  0.8158E+00
  0.7856E+00
  0.7564E+00
  0.7283E+00
  0.7012E+00
  0.6750E+00
  0.6498E+00
  0.6254E+00
  0.6018E+00
  0.5791E+00
  0.5572E+00
  0.5362E+00
  0.5161E+00
  0.4968E+00
  0.4779E+00
  0.4594E+00
  0.4394E+00
  0.4350E+00
  0.4415E+00
  0.4750E+00
  0.5361E+00
  0.6122E+00
  0.6819E+00
  0.7324E+00
  0.7668E+00
  0.8370E+00
  0.1067E+01
  0.1425E+01
  0.1385E+01
  0.1162E+01
  0.1164E+01
  0.1184E+01
  0.1822E+01
  0.1822E+01
  0.1821E+01
  0.1819E+01
  0.1814E+01
  0.1802E+01
  0.1779E+01
  0.1745E+01
  0.1699E+01
  0.1647E+01
  0.1592E+01
  0.1536E+01
  0.1481E+01
  0.1427E+01
  0.1374E+01
  0.1323E+01
  0.1274E+01
  0.1226E+01
  0.1179E+01
  0.1135E+01
  0.1092E+01
  0.1051E+01
  0.1012E+01
  0.9736E+00
  0.9371E+00
  0.9019E+00
  0.8680E+00
  0.8354E+00
  0.8039E+00
  0.7736E+00
  0.7443E+00
  0.7160E+00
  0.6887E+00
  0.6624E+00
  0.6369E+00
  0.6123E+00
  0.5885E+00
  0.5655E+00
  0.5434E+00
  0.5222E+00
  0.5018E+00
  0.4819E+00
  0.4626E+00
  0.4410E+00
  0.4307E+00
  0.4348E+00
  0.4604E+00
  0.5150E+00
  0.5892E+00
  0.6617E+00
  0.7163E+00
  0.7544E+00
  0.7808E+00
  0.8436E+00
  0.1062E+01
  0.1323E+01
  0.1270E+01
  0.1109E+01
  0.1143E+01
  0.1162E+01
  0.1802E+01
  0.1802E+01
  0.1801E+01
  0.1800E+01
  0.1795E+01
  0.1783E+01
  0.1762E+01
  0.1728E+01
  0.1684E+01
  0.1632E+01
  0.1578E+01
  0.1522E+01
  0.1467E+01
  0.1413E+01
  0.1361E+01
  0.1309E+01
  0.1260E+01
  0.1212E+01
  0.1166E+01
  0.1121E+01
  0.1079E+01
  0.1038E+01
  0.9980E+00
  0.9599E+00
  0.9233E+00
  0.8880E+00
  0.8541E+00
  0.8213E+00
  0.7897E+00
  0.7592E+00
  0.7298E+00
  0.7013E+00
  0.6738E+00
  0.6473E+00
  0.6216E+00
  0.5968E+00
  0.5728E+00
  0.5496E+00
  0.5274E+00
  0.5060E+00
  0.4852E+00
  0.4651E+00
  0.4424E+00
  0.4288E+00
  0.4311E+00
  0.4507E+00
  0.4985E+00
  0.5684E+00
  0.6420E+00
  0.7006E+00
  0.7413E+00
  0.7706E+00
  0.7901E+00
  0.8424E+00
  0.1023E+01
  0.1187E+01
  0.1168E+01
  0.1072E+01
  0.1120E+01
  0.1147E+01
  0.1779E+01
  0.1779E+01
  0.1778E+01
  0.1776E+01
  0.1772E+01
  0.1761E+01
  0.1741E+01
  0.1709E+01
  0.1666E+01
  0.1615E+01
  0.1561E+01
  0.1505E+01
  0.1450E+01
  0.1397E+01
  0.1344E+01
  0.1293E+01
  0.1244E+01
  0.1196E+01
  0.1150E+01
  0.1105E+01
  0.1062E+01
  0.1021E+01
  0.9817E+00
  0.9436E+00
  0.9068E+00
  0.8715E+00
  0.8374E+00
  0.8045E+00
  0.7728E+00
  0.7422E+00
  0.7126E+00
  0.6840E+00
  0.6564E+00
  0.6297E+00
  0.6039E+00
  0.5789E+00
  0.5548E+00
  0.5317E+00
  0.5094E+00
  0.4877E+00
  0.4669E+00
  0.4439E+00
  0.4277E+00
  0.4288E+00
  0.4451E+00
  0.4873E+00
  0.5526E+00
  0.6249E+00
  0.6851E+00
  0.7276E+00
  0.7592E+00
  0.7816E+00
  0.7916E+00
  0.8250E+00
  0.9345E+00
  0.1038E+01
  0.1090E+01
  0.1051E+01
  0.1089E+01
  0.1128E+01
  0.1751E+01
  0.1751E+01
  0.1751E+01
  0.1749E+01
  0.1745E+01
  0.1736E+01
  0.1717E+01
  0.1686E+01
  0.1644E+01
  0.1594E+01
  0.1540E+01
  0.1485E+01
  0.1431E+01
  0.1377E+01
  0.1325E+01
  0.1274E+01
  0.1224E+01
  0.1177E+01
  0.1130E+01
  0.1086E+01
  0.1043E+01
  0.1002E+01
  0.9624E+00
  0.9243E+00
  0.8875E+00
  0.8521E+00
  0.8179E+00
  0.7850E+00
  0.7532E+00
  0.7225E+00
  0.6928E+00
  0.6642E+00
  0.6365E+00
  0.6098E+00
  0.5840E+00
  0.5591E+00
  0.5351E+00
  0.5121E+00
  0.4897E+00
  0.4681E+00
  0.4449E+00
  0.4275E+00
  0.4276E+00
  0.4414E+00
  0.4791E+00
  0.5401E+00
  0.6117E+00
  0.6733E+00
  0.7165E+00
  0.7490E+00
  0.7728E+00
  0.7819E+00
  0.7777E+00
  0.7639E+00
  0.8064E+00
  0.9083E+00
  0.1037E+01
  0.1049E+01
  0.1053E+01
  0.1105E+01
  0.1719E+01
  0.1719E+01
  0.1719E+01
  0.1718E+01
  0.1714E+01
  0.1705E+01
  0.1688E+01
  0.1658E+01
  0.1618E+01
  0.1569E+01
  0.1516E+01
  0.1461E+01
  0.1407E+01
  0.1354E+01
  0.1302E+01
  0.1251E+01
  0.1202E+01
  0.1154E+01
  0.1108E+01
  0.1064E+01
  0.1021E+01
  0.9797E+00
  0.9401E+00
  0.9020E+00
  0.8653E+00
  0.8299E+00
  0.7957E+00
  0.7628E+00
  0.7311E+00
  0.7005E+00
  0.6709E+00
  0.6424E+00
  0.6148E+00
  0.5883E+00
  0.5627E+00
  0.5380E+00
  0.5143E+00
  0.4913E+00
  0.4691E+00
  0.4453E+00
  0.4272E+00
  0.4268E+00
  0.4392E+00
  0.4744E+00
  0.5314E+00
  0.6006E+00
  0.6635E+00
  0.7088E+00
  0.7426E+00
  0.7657E+00
  0.7736E+00
  0.7670E+00
  0.7206E+00
  0.6535E+00
  0.6832E+00
  0.8142E+00
  0.1001E+01
  0.1058E+01
  0.1027E+01
  0.1083E+01
  0.1683E+01
  0.1683E+01
  0.1682E+01
  0.1681E+01
  0.1678E+01
  0.1670E+01
  0.1654E+01
  0.1626E+01
  0.1587E+01
  0.1540E+01
  0.1487E+01
  0.1434E+01
  0.1380E+01
  0.1327E+01
  0.1275E+01
  0.1224E+01
  0.1175E+01
  0.1128E+01
  0.1082E+01
  0.1038E+01
  0.9954E+00
  0.9545E+00
  0.9150E+00
  0.8770E+00
  0.8405E+00
  0.8052E+00
  0.7713E+00
  0.7386E+00
  0.7071E+00
  0.6767E+00
  0.6474E+00
  0.6191E+00
  0.5919E+00
  0.5657E+00
  0.5405E+00
  0.5163E+00
  0.4927E+00
  0.4701E+00
  0.4458E+00
  0.4270E+00
  0.4263E+00
  0.4381E+00
  0.4707E+00
  0.5241E+00
  0.5915E+00
  0.6546E+00
  0.7015E+00
  0.7378E+00
  0.7634E+00
  0.7677E+00
  0.7584E+00
  0.7064E+00
  0.6173E+00
  0.5538E+00
  0.5925E+00
  0.7427E+00
  0.9575E+00
  0.1068E+01
  0.1025E+01
  0.1066E+01
  0.1641E+01
  0.1641E+01
  0.1641E+01
  0.1640E+01
  0.1637E+01
  0.1630E+01
  0.1615E+01
  0.1589E+01
  0.1552E+01
  0.1506E+01
  0.1455E+01
  0.1402E+01
  0.1349E+01
  0.1296E+01
  0.1245E+01
  0.1195E+01
  0.1146E+01
  0.1099E+01
  0.1053E+01
  0.1010E+01
  0.9674E+00
  0.9267E+00
  0.8876E+00
  0.8499E+00
  0.8137E+00
  0.7788E+00
  0.7453E+00
  0.7129E+00
  0.6818E+00
  0.6518E+00
  0.6230E+00
  0.5952E+00
  0.5685E+00
  0.5428E+00
  0.5182E+00
  0.4942E+00
  0.4712E+00
  0.4467E+00
  0.4278E+00
  0.4266E+00
  0.4370E+00
  0.4697E+00
  0.5219E+00
  0.5855E+00
  0.6457E+00
  0.6913E+00
  0.7263E+00
  0.7549E+00
  0.7634E+00
  0.7522E+00
  0.6927E+00
  0.6024E+00
  0.5249E+00
  0.4996E+00
  0.5402E+00
  0.6832E+00
  0.9021E+00
  0.1065E+01
  0.1041E+01
  0.1049E+01
  0.1595E+01
  0.1595E+01
  0.1595E+01
  0.1594E+01
  0.1591E+01
  0.1585E+01
  0.1572E+01
  0.1548E+01
  0.1513E+01
  0.1469E+01
  0.1419E+01
  0.1367E+01
  0.1314E+01
  0.1262E+01
  0.1212E+01
  0.1162E+01
  0.1114E+01
  0.1068E+01
  0.1023E+01
  0.9792E+00
  0.9375E+00
  0.8973E+00
  0.8587E+00
  0.8215E+00
  0.7858E+00
  0.7515E+00
  0.7184E+00
  0.6867E+00
  0.6561E+00
  0.6267E+00
  0.5985E+00
  0.5713E+00
  0.5452E+00
  0.5202E+00
  0.4958E+00
  0.4724E+00
  0.4474E+00
  0.4283E+00
  0.4272E+00
  0.4380E+00
  0.4688E+00
  0.5207E+00
  0.5868E+00
  0.6478E+00
  0.6904E+00
  0.7217E+00
  0.7447E+00
  0.7537E+00
  0.7419E+00
  0.6802E+00
  0.5900E+00
  0.5183E+00
  0.4844E+00
  0.4851E+00
  0.5164E+00
  0.6333E+00
  0.8329E+00
  0.1030E+01
  0.1061E+01
  0.1034E+01
  0.1546E+01
  0.1546E+01
  0.1545E+01
  0.1545E+01
  0.1543E+01
  0.1537E+01
  0.1526E+01
  0.1504E+01
  0.1471E+01
  0.1428E+01
  0.1380E+01
  0.1329E+01
  0.1277E+01
  0.1226E+01
  0.1176E+01
  0.1128E+01
  0.1080E+01
  0.1035E+01
  0.9904E+00
  0.9477E+00
  0.9066E+00
  0.8671E+00
  0.8292E+00
  0.7927E+00
  0.7576E+00
  0.7240E+00
  0.6916E+00
  0.6605E+00
  0.6307E+00
  0.6020E+00
  0.5744E+00
  0.5480E+00
  0.5226E+00
  0.4979E+00
  0.4741E+00
  0.4488E+00
  0.4290E+00
  0.4278E+00
  0.4379E+00
  0.4685E+00
  0.5190E+00
  0.5846E+00
  0.6496E+00
  0.6970E+00
  0.7275E+00
  0.7485E+00
  0.7514E+00
  0.7371E+00
  0.6716E+00
  0.5822E+00
  0.5150E+00
  0.4881E+00
  0.4834E+00
  0.4860E+00
  0.5082E+00
  0.5913E+00
  0.7558E+00
  0.9518E+00
  0.1057E+01
  0.1033E+01
  0.1495E+01
  0.1495E+01
  0.1495E+01
  0.1494E+01
  0.1492E+01
  0.1488E+01
  0.1477E+01
  0.1457E+01
  0.1427E+01
  0.1386E+01
  0.1340E+01
  0.1290E+01
  0.1240E+01
  0.1190E+01
  0.1141E+01
  0.1093E+01
  0.1046E+01
  0.1001E+01
  0.9579E+00
  0.9161E+00
  0.8758E+00
  0.8371E+00
  0.7999E+00
  0.7642E+00
  0.7299E+00
  0.6970E+00
  0.6655E+00
  0.6351E+00
  0.6060E+00
  0.5781E+00
  0.5513E+00
  0.5254E+00
  0.5004E+00
  0.4761E+00
  0.4506E+00
  0.4309E+00
  0.4293E+00
  0.4397E+00
  0.4707E+00
  0.5180E+00
  0.5802E+00
  0.6437E+00
  0.6943E+00
  0.7321E+00
  0.7571E+00
  0.7585E+00
  0.7419E+00
  0.6720E+00
  0.5807E+00
  0.5162E+00
  0.4926E+00
  0.4887E+00
  0.4898E+00
  0.4954E+00
  0.5111E+00
  0.5594E+00
  0.6796E+00
  0.8503E+00
  0.1010E+01
  0.1058E+01
  0.1444E+01
  0.1444E+01
  0.1444E+01
  0.1443E+01
  0.1442E+01
  0.1438E+01
  0.1429E+01
  0.1411E+01
  0.1382E+01
  0.1344E+01
  0.1299E+01
  0.1251E+01
  0.1202E+01
  0.1153E+01
  0.1105E+01
  0.1058E+01
  0.1013E+01
  0.9688E+00
  0.9263E+00
  0.8853E+00
  0.8460E+00
  0.8081E+00
  0.7718E+00
  0.7370E+00
  0.7035E+00
  0.6714E+00
  0.6406E+00
  0.6110E+00
  0.5827E+00
  0.5554E+00
  0.5290E+00
  0.5036E+00
  0.4787E+00
  0.4525E+00
  0.4337E+00
  0.4320E+00
  0.4421E+00
  0.4757E+00
  0.5275E+00
  0.5853E+00
  0.6400E+00
  0.6861E+00
  0.7245E+00
  0.7546E+00
  0.7600E+00
  0.7476E+00
  0.6798E+00
  0.5848E+00
  0.5198E+00
  0.4983E+00
  0.4948E+00
  0.4962E+00
  0.5015E+00
  0.5084E+00
  0.5159E+00
  0.5387E+00
  0.6122E+00
  0.7464E+00
  0.9030E+00
  0.1101E+01
  0.1395E+01
  0.1395E+01
  0.1395E+01
  0.1395E+01
  0.1393E+01
  0.1390E+01
  0.1382E+01
  0.1366E+01
  0.1340E+01
  0.1304E+01
  0.1261E+01
  0.1214E+01
  0.1166E+01
  0.1118E+01
  0.1071E+01
  0.1026E+01
  0.9812E+00
  0.9382E+00
  0.8967E+00
  0.8567E+00
  0.8182E+00
  0.7813E+00
  0.7458E+00
  0.7118E+00
  0.6791E+00
  0.6478E+00
  0.6176E+00
  0.5886E+00
  0.5607E+00
  0.5339E+00
  0.5080E+00
  0.4823E+00
  0.4558E+00
  0.4395E+00
  0.4360E+00
  0.4468E+00
  0.4792E+00
  0.5312E+00
  0.5972E+00
  0.6533E+00
  0.6889E+00
  0.7180E+00
  0.7460E+00
  0.7568E+00
  0.7468E+00
  0.6855E+00
  0.5917E+00
  0.5253E+00
  0.5036E+00
  0.5006E+00
  0.5023E+00
  0.5070E+00
  0.5126E+00
  0.5168E+00
  0.5193E+00
  0.5278E+00
  0.5649E+00
  0.6567E+00
  0.7817E+00
  0.1089E+01
  0.1352E+01
  0.1352E+01
  0.1351E+01
  0.1351E+01
  0.1350E+01
  0.1347E+01
  0.1341E+01
  0.1326E+01
  0.1303E+01
  0.1269E+01
  0.1227E+01
  0.1182E+01
  0.1136E+01
  0.1089E+01
  0.1043E+01
  0.9981E+00
  0.9546E+00
  0.9124E+00
  0.8716E+00
  0.8323E+00
  0.7946E+00
  0.7583E+00
  0.7234E+00
  0.6900E+00
  0.6579E+00
  0.6270E+00
  0.5973E+00
  0.5688E+00
  0.5413E+00
  0.5145E+00
  0.4877E+00
  0.4633E+00
  0.4489E+00
  0.4434E+00
  0.4546E+00
  0.4895E+00
  0.5389E+00
  0.5974E+00
  0.6576E+00
  0.7026E+00
  0.7278E+00
  0.7430E+00
  0.7502E+00
  0.7411E+00
  0.6830E+00
  0.5938E+00
  0.5296E+00
  0.5080E+00
  0.5052E+00
  0.5068E+00
  0.5114E+00
  0.5162E+00
  0.5195E+00
  0.5206E+00
  0.5212E+00
  0.5252E+00
  0.5430E+00
  0.5893E+00
  0.6658E+00
  0.9393E+00
  0.1319E+01
  0.1319E+01
  0.1319E+01
  0.1319E+01
  0.1318E+01
  0.1316E+01
  0.1310E+01
  0.1296E+01
  0.1273E+01
  0.1241E+01
  0.1202E+01
  0.1158E+01
  0.1112E+01
  0.1067E+01
  0.1021E+01
  0.9773E+00
  0.9343E+00
  0.8927E+00
  0.8528E+00
  0.8143E+00
  0.7771E+00
  0.7413E+00
  0.7068E+00
  0.6735E+00
  0.6416E+00
  0.6108E+00
  0.5812E+00
  0.5525E+00
  0.5244E+00
  0.4980E+00
  0.4761E+00
  0.4603E+00
  0.4549E+00
  0.4668E+00
  0.5021E+00
  0.5547E+00
  0.6112E+00
  0.6582E+00
  0.6991E+00
  0.7374E+00
  0.7589E+00
  0.7558E+00
  0.7377E+00
  0.6757E+00
  0.5897E+00
  0.5288E+00
  0.5097E+00
  0.5082E+00
  0.5099E+00
  0.5142E+00
  0.5189E+00
  0.5217E+00
  0.5221E+00
  0.5220E+00
  0.5240E+00
  0.5275E+00
  0.5280E+00
  0.5115E+00
  0.4979E+00
  0.6188E+00
  0.1302E+01
  0.1302E+01
  0.1302E+01
  0.1302E+01
  0.1301E+01
  0.1299E+01
  0.1294E+01
  0.1283E+01
  0.1263E+01
  0.1233E+01
  0.1195E+01
  0.1152E+01
  0.1107E+01
  0.1061E+01
  0.1016E+01
  0.9713E+00
  0.9280E+00
  0.8860E+00
  0.8451E+00
  0.8056E+00
  0.7677E+00
  0.7312E+00
  0.6962E+00
  0.6625E+00
  0.6302E+00
  0.5993E+00
  0.5699E+00
  0.5421E+00
  0.5170E+00
  0.4949E+00
  0.4772E+00
  0.4724E+00
  0.4850E+00
  0.5207E+00
  0.5707E+00
  0.6271E+00
  0.6749E+00
  0.7045E+00
  0.7322E+00
  0.7592E+00
  0.7618E+00
  0.7444E+00
  0.6736E+00
  0.5853E+00
  0.5246E+00
  0.5079E+00
  0.5084E+00
  0.5113E+00
  0.5160E+00
  0.5205E+00
  0.5230E+00
  0.5230E+00
  0.5228E+00
  0.5242E+00
  0.5274E+00
  0.5254E+00
  0.4960E+00
  0.4270E+00
  0.3515E+00
  0.3714E+00
  0.1299E+01
  0.1299E+01
  0.1299E+01
  0.1299E+01
  0.1298E+01
  0.1297E+01
  0.1292E+01
  0.1282E+01
  0.1263E+01
  0.1234E+01
  0.1196E+01
  0.1153E+01
  0.1108E+01
  0.1062E+01
  0.1017E+01
  0.9725E+00
  0.9290E+00
  0.8868E+00
  0.8457E+00
  0.8058E+00
  0.7673E+00
  0.7302E+00
  0.6947E+00
  0.6607E+00
  0.6282E+00
  0.5974E+00
  0.5683E+00
  0.5414E+00
  0.5178E+00
  0.4993E+00
  0.4961E+00
  0.5098E+00
  0.5456E+00
  0.5934E+00
  0.6431E+00
  0.6865E+00
  0.7196E+00
  0.7399E+00
  0.7569E+00
  0.7618E+00
  0.7478E+00
  0.6779E+00
  0.5837E+00
  0.5207E+00
  0.5043E+00
  0.5057E+00
  0.5101E+00
  0.5163E+00
  0.5214E+00
  0.5235E+00
  0.5235E+00
  0.5232E+00
  0.5243E+00
  0.5270E+00
  0.5253E+00
  0.4991E+00
  0.4302E+00
  0.3542E+00
  0.2864E+00
  0.2672E+00
  0.1299E+01
  0.1299E+01
  0.1299E+01
  0.1299E+01
  0.1298E+01
  0.1297E+01
  0.1293E+01
  0.1284E+01
  0.1266E+01
  0.1239E+01
  0.1202E+01
  0.1160E+01
  0.1115E+01
  0.1069E+01
  0.1024E+01
  0.9786E+00
  0.9346E+00
  0.8916E+00
  0.8499E+00
  0.8094E+00
  0.7703E+00
  0.7326E+00
  0.6964E+00
  0.6619E+00
  0.6293E+00
  0.5986E+00
  0.5704E+00
  0.5458E+00
  0.5280E+00
  0.5272E+00
  0.5417E+00
  0.5761E+00
  0.6205E+00
  0.6651E+00
  0.7008E+00
  0.7281E+00
  0.7514E+00
  0.7660E+00
  0.7647E+00
  0.7496E+00
  0.6817E+00
  0.5848E+00
  0.5179E+00
  0.4996E+00
  0.5013E+00
  0.5073E+00
  0.5148E+00
  0.5210E+00
  0.5236E+00
  0.5237E+00
  0.5233E+00
  0.5241E+00
  0.5266E+00
  0.5247E+00
  0.4989E+00
  0.4312E+00
  0.3560E+00
  0.2942E+00
  0.2481E+00
  0.2257E+00
  0.1302E+01
  0.1302E+01
  0.1302E+01
  0.1302E+01
  0.1301E+01
  0.1300E+01
  0.1297E+01
  0.1289E+01
  0.1272E+01
  0.1247E+01
  0.1211E+01
  0.1170E+01
  0.1125E+01
  0.1079E+01
  0.1033E+01
  0.9869E+00
  0.9420E+00
  0.8981E+00
  0.8555E+00
  0.8143E+00
  0.7747E+00
  0.7368E+00
  0.7006E+00
  0.6664E+00
  0.6342E+00
  0.6048E+00
  0.5800E+00
  0.5644E+00
  0.5649E+00
  0.5797E+00
  0.6112E+00
  0.6504E+00
  0.6888E+00
  0.7193E+00
  0.7412E+00
  0.7587E+00
  0.7742E+00
  0.7743E+00
  0.7578E+00
  0.6896E+00
  0.5894E+00
  0.5160E+00
  0.4935E+00
  0.4953E+00
  0.5026E+00
  0.5118E+00
  0.5194E+00
  0.5231E+00
  0.5235E+00
  0.5233E+00
  0.5240E+00
  0.5263E+00
  0.5242E+00
  0.4982E+00
  0.4309E+00
  0.3563E+00
  0.2947E+00
  0.2501E+00
  0.2214E+00
  0.2078E+00
  0.1308E+01
  0.1308E+01
  0.1308E+01
  0.1308E+01
  0.1308E+01
  0.1307E+01
  0.1304E+01
  0.1296E+01
  0.1282E+01
  0.1257E+01
  0.1223E+01
  0.1182E+01
  0.1136E+01
  0.1090E+01
  0.1042E+01
  0.9956E+00
  0.9498E+00
  0.9051E+00
  0.8619E+00
  0.8202E+00
  0.7804E+00
  0.7426E+00
  0.7071E+00
  0.6741E+00
  0.6447E+00
  0.6208E+00
  0.6067E+00
  0.6079E+00
  0.6216E+00
  0.6490E+00
  0.6823E+00
  0.7137E+00
  0.7385E+00
  0.7570E+00
  0.7709E+00
  0.7817E+00
  0.7818E+00
  0.7687E+00
  0.7055E+00
  0.6012E+00
  0.5182E+00
  0.4875E+00
  0.4886E+00
  0.4962E+00
  0.5072E+00
  0.5165E+00
  0.5218E+00
  0.5230E+00
  0.5230E+00
  0.5241E+00
  0.5263E+00
  0.5240E+00
  0.4976E+00
  0.4304E+00
  0.3560E+00
  0.2946E+00
  0.2502E+00
  0.2216E+00
  0.2068E+00
  0.2016E+00
  0.1315E+01
  0.1315E+01
  0.1315E+01
  0.1315E+01
  0.1315E+01
  0.1314E+01
  0.1311E+01
  0.1305E+01
  0.1292E+01
  0.1268E+01
  0.1235E+01
  0.1194E+01
  0.1148E+01
  0.1100E+01
  0.1052E+01
  0.1004E+01
  0.9578E+00
  0.9124E+00
  0.8686E+00
  0.8269E+00
  0.7875E+00
  0.7509E+00
  0.7173E+00
  0.6878E+00
  0.6647E+00
  0.6517E+00
  0.6529E+00
  0.6651E+00
  0.6879E+00
  0.7150E+00
  0.7398E+00
  0.7591E+00
  0.7741E+00
  0.7856E+00
  0.7927E+00
  0.7901E+00
  0.7769E+00
  0.7214E+00
  0.6181E+00
  0.5267E+00
  0.4847E+00
  0.4833E+00
  0.4891E+00
  0.5013E+00
  0.5125E+00
  0.5196E+00
  0.5220E+00
  0.5226E+00
  0.5241E+00
  0.5266E+00
  0.5243E+00
  0.4976E+00
  0.4299E+00
  0.3556E+00
  0.2943E+00
  0.2500E+00
  0.2215E+00
  0.2068E+00
  0.2015E+00
  0.2002E+00
  0.1323E+01
  0.1323E+01
  0.1323E+01
  0.1323E+01
  0.1323E+01
  0.1322E+01
  0.1320E+01
  0.1314E+01
  0.1302E+01
  0.1280E+01
  0.1247E+01
  0.1206E+01
  0.1160E+01
  0.1111E+01
  0.1062E+01
  0.1013E+01
  0.9656E+00
  0.9198E+00
  0.8762E+00
  0.8354E+00
  0.7977E+00
  0.7635E+00
  0.7339E+00
  0.7112E+00
  0.6982E+00
  0.6986E+00
  0.7088E+00
  0.7270E+00
  0.7479E+00
  0.7666E+00
  0.7816E+00
  0.7934E+00
  0.8013E+00
  0.8039E+00
  0.7980E+00
  0.7842E+00
  0.7330E+00
  0.6342E+00
  0.5393E+00
  0.4857E+00
  0.4796E+00
  0.4835E+00
  0.4955E+00
  0.5081E+00
  0.5166E+00
  0.5205E+00
  0.5219E+00
  0.5240E+00
  0.5271E+00
  0.5249E+00
  0.4984E+00
  0.4305E+00
  0.3555E+00
  0.2941E+00
  0.2499E+00
  0.2214E+00
  0.2068E+00
  0.2014E+00
  0.2002E+00
  0.2000E+00
  0.1335E+01
  0.1335E+01
  0.1335E+01
  0.1335E+01