# vtk DataFile Version 3.0
vtk output
ASCII
DATASET RECTILINEAR_GRID
DIMENSIONS          61          61 1
X_COORDINATES    61 double
  0.0000E+00
  0.1667E+00
  0.3333E+00
  0.5000E+00
  0.6667E+00
  0.8333E+00
  0.1000E+01
  0.1167E+01
  0.1333E+01
  0.1500E+01
  0.1667E+01
  0.1833E+01
  0.2000E+01
  0.2167E+01
  0.2333E+01
  0.2500E+01
  0.2667E+01
  0.2833E+01
  0.3000E+01
  0.3167E+01
  0.3333E+01
  0.3500E+01
  0.3667E+01
  0.3833E+01
  0.4000E+01
  0.4167E+01
  0.4333E+01
  0.4500E+01
  0.4667E+01
  0.4833E+01
  0.5000E+01
  0.5167E+01
  0.5333E+01
  0.5500E+01
  0.5667E+01
  0.5833E+01
  0.6000E+01
  0.6167E+01
  0.6333E+01
  0.6500E+01
  0.6667E+01
  0.6833E+01
  0.7000E+01
  0.7167E+01
  0.7333E+01
  0.7500E+01
  0.7667E+01
  0.7833E+01
  0.8000E+01
  0.8167E+01
  0.8333E+01
  0.8500E+01
  0.8667E+01
  0.8833E+01
  0.9000E+01
  0.9167E+01
  0.9333E+01
  0.9500E+01
  0.9667E+01
  0.9833E+01
  0.1000E+02
Y_COORDINATES    61 double
  0.0000E+00
  0.1667E+00
  0.3333E+00
  0.5000E+00
  0.6667E+00
  0.8333E+00
  0.1000E+01
  0.1167E+01
  0.1333E+01
  0.1500E+01
  0.1667E+01
  0.1833E+01
  0.2000E+01
  0.2167E+01
  0.2333E+01
  0.2500E+01
  0.2667E+01
  0.2833E+01
  0.3000E+01
  0.3167E+01
  0.3333E+01
  0.3500E+01
  0.3667E+01
  0.3833E+01
  0.4000E+01
  0.4167E+01
  0.4333E+01
  0.4500E+01
  0.4667E+01
  0.4833E+01
  0.5000E+01
  0.5167E+01
  0.5333E+01
  0.5500E+01
  0.5667E+01
  0.5833E+01
  0.6000E+01
  0.6167E+01
  0.6333E+01
  0.6500E+01
  0.6667E+01
  0.6833E+01
  0.7000E+01
  0.7167E+01
  0.7333E+01
  0.7500E+01
  0.7667E+01
  0.7833E+01
  0.8000E+01
  0.8167E+01
  0.8333E+01
  0.8500E+01
  0.8667E+01
  0.8833E+01
  0.9000E+01
  0.9167E+01
  0.9333E+01
  0.9500E+01
  0.9667E+01
  0.9833E+01
  0.1000E+02
Z_COORDINATES 1 double
0
CELL_DATA                 3600
FIELD FieldData 4
density 1                 3600 double
  0.3472E+01
  0.3472E+01
  0.3472E+01
  0.3472E+01
  0.3472E+01
  0.3472E+01
  0.3472E+01
  0.3472E+01
  0.3472E+01
  0.3471E+01
  0.3466E+01
  0.3451E+01
  0.3415E+01
  0.3347E+01
  0.3246E+01
  0.3120E+01
  0.2985E+01
  0.2847E+01
  0.2712E+01
  0.2581E+01
  0.2456E+01
  0.2337E+01
  0.2224E+01
  0.2117E+01
  0.2016E+01
  0.1922E+01
  0.1832E+01
  0.1747E+01
  0.1667E+01
  0.1590E+01
  0.1518E+01
  0.1450E+01
  0.1385E+01
  0.1323E+01
  0.1265E+01
  0.1210E+01
  0.1158E+01
  0.1110E+01
  0.1065E+01
  0.1025E+01
  0.9905E+00
  0.9749E+00
  0.9773E+00
  0.9970E+00
  0.1025E+01
  0.1050E+01
  0.1064E+01
  0.1063E+01
  0.1046E+01
  0.9868E+00
  0.8893E+00
  0.7756E+00
  0.6745E+00
  0.6082E+00
  0.5947E+00
  0.5967E+00
  0.6071E+00
  0.6346E+00
  0.7106E+00
  0.6647E+00
  0.3462E+01
  0.3462E+01
  0.3462E+01
  0.3462E+01
  0.3462E+01
  0.3462E+01
  0.3462E+01
  0.3462E+01
  0.3462E+01
  0.3461E+01
  0.3456E+01
  0.3441E+01
  0.3406E+01
  0.3338E+01
  0.3237E+01
  0.3113E+01
  0.2977E+01
  0.2840E+01
  0.2705E+01
  0.2574E+01
  0.2449E+01
  0.2329E+01
  0.2217E+01
  0.2110E+01
  0.2009E+01
  0.1914E+01
  0.1824E+01
  0.1739E+01
  0.1659E+01
  0.1583E+01
  0.1510E+01
  0.1441E+01
  0.1376E+01
  0.1314E+01
  0.1256E+01
  0.1200E+01
  0.1148E+01
  0.1099E+01
  0.1053E+01
  0.1013E+01
  0.9779E+00
  0.9607E+00
  0.9622E+00
  0.9792E+00
  0.1005E+01
  0.1029E+01
  0.1042E+01
  0.1042E+01
  0.1029E+01
  0.9753E+00
  0.8823E+00
  0.7715E+00
  0.6716E+00
  0.6060E+00
  0.5933E+00
  0.5956E+00
  0.6069E+00
  0.6347E+00
  0.7015E+00
  0.6716E+00
  0.3442E+01
  0.3442E+01
  0.3442E+01
  0.3442E+01
  0.3442E+01
  0.3442E+01
  0.3442E+01
  0.3442E+01
  0.3442E+01
  0.3441E+01
  0.3436E+01
  0.3422E+01
  0.3387E+01
  0.3321E+01
  0.3220E+01
  0.3096E+01
  0.2961E+01
  0.2824E+01
  0.2689E+01
  0.2559E+01
  0.2434E+01
  0.2314E+01
  0.2202E+01
  0.2095E+01
  0.1994E+01
  0.1899E+01
  0.1809E+01
  0.1724E+01
  0.1643E+01
  0.1566E+01
  0.1493E+01
  0.1423E+01
  0.1357E+01
  0.1295E+01
  0.1236E+01
  0.1179E+01
  0.1126E+01
  0.1076E+01
  0.1029E+01
  0.9878E+00
  0.9524E+00
  0.9321E+00
  0.9320E+00
  0.9452E+00
  0.9669E+00
  0.9878E+00
  0.1002E+01
  0.1004E+01
  0.9975E+00
  0.9550E+00
  0.8693E+00
  0.7632E+00
  0.6651E+00
  0.6017E+00
  0.5910E+00
  0.5940E+00
  0.6068E+00
  0.6338E+00
  0.6870E+00
  0.6579E+00
  0.3410E+01
  0.3410E+01
  0.3410E+01
  0.3410E+01
  0.3410E+01
  0.3410E+01
  0.3410E+01
  0.3410E+01
  0.3410E+01
  0.3408E+01
  0.3404E+01
  0.3390E+01
  0.3357E+01
  0.3292E+01
  0.3193E+01
  0.3070E+01
  0.2936E+01
  0.2799E+01
  0.2664E+01
  0.2534E+01
  0.2409E+01
  0.2290E+01
  0.2177E+01
  0.2070E+01
  0.1969E+01
  0.1873E+01
  0.1783E+01
  0.1697E+01
  0.1615E+01
  0.1538E+01
  0.1464E+01
  0.1394E+01
  0.1327E+01
  0.1263E+01
  0.1203E+01
  0.1146E+01
  0.1091E+01
  0.1040E+01
  0.9929E+00
  0.9502E+00
  0.9141E+00
  0.8908E+00
  0.8889E+00
  0.8981E+00
  0.9161E+00
  0.9347E+00
  0.9506E+00
  0.9587E+00
  0.9565E+00
  0.9290E+00
  0.8513E+00
  0.7495E+00
  0.6545E+00
  0.5958E+00
  0.5880E+00
  0.5918E+00
  0.6068E+00
  0.6343E+00
  0.6729E+00
  0.6279E+00
  0.3361E+01
  0.3361E+01
  0.3361E+01
  0.3361E+01
  0.3361E+01
  0.3361E+01
  0.3361E+01
  0.3361E+01
  0.3361E+01
  0.3360E+01
  0.3356E+01
  0.3343E+01
  0.3310E+01
  0.3247E+01
  0.3151E+01
  0.3029E+01
  0.2896E+01
  0.2760E+01
  0.2626E+01
  0.2496E+01
  0.2371E+01
  0.2252E+01
  0.2139E+01
  0.2031E+01
  0.1930E+01
  0.1834E+01
  0.1743E+01
  0.1656E+01
  0.1574E+01
  0.1496E+01
  0.1421E+01
  0.1350E+01
  0.1283E+01
  0.1218E+01
  0.1158E+01
  0.1100E+01
  0.1045E+01
  0.9933E+00
  0.9455E+00
  0.9024E+00
  0.8661E+00
  0.8407E+00
  0.8372E+00
  0.8432E+00
  0.8588E+00
  0.8766E+00
  0.8956E+00
  0.9121E+00
  0.9147E+00
  0.8997E+00
  0.8285E+00
  0.7294E+00
  0.6391E+00
  0.5880E+00
  0.5833E+00
  0.5887E+00
  0.6061E+00
  0.6337E+00
  0.6510E+00
  0.5837E+00
  0.3291E+01
  0.3291E+01
  0.3291E+01
  0.3291E+01
  0.3291E+01
  0.3291E+01
  0.3291E+01
  0.3291E+01
  0.3291E+01
  0.3290E+01
  0.3286E+01
  0.3274E+01
  0.3244E+01
  0.3183E+01
  0.3090E+01
  0.2971E+01
  0.2839E+01
  0.2704E+01
  0.2571E+01
  0.2441E+01
  0.2316E+01
  0.2197E+01
  0.2084E+01
  0.1977E+01
  0.1876E+01
  0.1779E+01
  0.1688E+01
  0.1601E+01
  0.1519E+01
  0.1441E+01
  0.1366E+01
  0.1295E+01
  0.1227E+01
  0.1163E+01
  0.1102E+01
  0.1045E+01
  0.9901E+00
  0.9390E+00
  0.8917E+00
  0.8491E+00
  0.8132E+00
  0.7868E+00
  0.7821E+00
  0.7866E+00
  0.8011E+00
  0.8200E+00
  0.8443E+00
  0.8716E+00
  0.8811E+00
  0.8692E+00
  0.8004E+00
  0.7033E+00
  0.6187E+00
  0.5788E+00
  0.5775E+00
  0.5864E+00
  0.6077E+00
  0.6312E+00
  0.6237E+00
  0.5258E+00
  0.3197E+01
  0.3197E+01
  0.3197E+01
  0.3197E+01
  0.3197E+01
  0.3197E+01
  0.3197E+01
  0.3197E+01
  0.3197E+01
  0.3196E+01
  0.3193E+01
  0.3182E+01
  0.3153E+01
  0.3097E+01
  0.3007E+01
  0.2891E+01
  0.2761E+01
  0.2628E+01
  0.2496E+01
  0.2368E+01
  0.2244E+01
  0.2126E+01
  0.2014E+01
  0.1908E+01
  0.1807E+01
  0.1711E+01
  0.1620E+01
  0.1534E+01
  0.1452E+01
  0.1375E+01
  0.1301E+01
  0.1231E+01
  0.1164E+01
  0.1101E+01
  0.1041E+01
  0.9850E+00
  0.9318E+00
  0.8820E+00
  0.8360E+00
  0.7946E+00
  0.7595E+00
  0.7329E+00
  0.7278E+00
  0.7320E+00
  0.7467E+00
  0.7692E+00
  0.8029E+00
  0.8431E+00
  0.8561E+00
  0.8414E+00
  0.7675E+00
  0.6723E+00
  0.5950E+00
  0.5692E+00
  0.5705E+00
  0.5838E+00
  0.6080E+00
  0.6259E+00
  0.5888E+00
  0.4619E+00
  0.3080E+01
  0.3080E+01
  0.3080E+01
  0.3080E+01
  0.3080E+01
  0.3080E+01
  0.3080E+01
  0.3080E+01
  0.3080E+01
  0.3079E+01
  0.3076E+01
  0.3067E+01
  0.3041E+01
  0.2988E+01
  0.2903E+01
  0.2791E+01
  0.2665E+01
  0.2535E+01
  0.2405E+01
  0.2279E+01
  0.2158E+01
  0.2041E+01
  0.1931E+01
  0.1826E+01
  0.1727E+01
  0.1633E+01
  0.1544E+01
  0.1459E+01
  0.1379E+01
  0.1303E+01
  0.1231E+01
  0.1163E+01
  0.1098E+01
  0.1037E+01
  0.9792E+00
  0.9248E+00
  0.8735E+00
  0.8255E+00
  0.7813E+00
  0.7414E+00
  0.7075E+00
  0.6812E+00
  0.6769E+00
  0.6816E+00
  0.6982E+00
  0.7290E+00
  0.7768E+00
  0.8289E+00
  0.8384E+00
  0.8146E+00
  0.7313E+00
  0.6380E+00
  0.5720E+00
  0.5592E+00
  0.5637E+00
  0.5827E+00
  0.6096E+00
  0.6139E+00
  0.5405E+00
  0.4000E+00
  0.2946E+01
  0.2946E+01
  0.2946E+01
  0.2946E+01
  0.2946E+01
  0.2946E+01
  0.2946E+01
  0.2946E+01
  0.2946E+01
  0.2946E+01
  0.2943E+01
  0.2935E+01
  0.2912E+01
  0.2863E+01
  0.2783E+01
  0.2677E+01
  0.2555E+01
  0.2429E+01
  0.2303E+01
  0.2180E+01
  0.2061E+01
  0.1948E+01
  0.1840E+01
  0.1738E+01
  0.1641E+01
  0.1550E+01
  0.1463E+01
  0.1382E+01
  0.1304E+01
  0.1230E+01
  0.1161E+01
  0.1095E+01
  0.1033E+01
  0.9739E+00
  0.9186E+00
  0.8664E+00
  0.8173E+00
  0.7715E+00
  0.7291E+00
  0.6909E+00
  0.6578E+00
  0.6331E+00
  0.6301E+00
  0.6366E+00
  0.6595E+00
  0.7052E+00
  0.7730E+00
  0.8242E+00
  0.8255E+00
  0.7825E+00
  0.6914E+00
  0.6021E+00
  0.5524E+00
  0.5491E+00
  0.5584E+00
  0.5823E+00
  0.6078E+00
  0.5973E+00
  0.4792E+00
  0.3431E+00
  0.2803E+01
  0.2803E+01
  0.2803E+01
  0.2803E+01
  0.2803E+01
  0.2803E+01
  0.2803E+01
  0.2803E+01
  0.2803E+01
  0.2803E+01
  0.2801E+01
  0.2793E+01
  0.2773E+01
  0.2729E+01
  0.2655E+01
  0.2555E+01
  0.2439E+01
  0.2317E+01
  0.2195E+01
  0.2076E+01
  0.1961E+01
  0.1852E+01
  0.1747E+01
  0.1648E+01
  0.1555E+01
  0.1467E+01
  0.1383E+01
  0.1305E+01
  0.1230E+01
  0.1159E+01
  0.1092E+01
  0.1029E+01
  0.9698E+00
  0.9137E+00
  0.8608E+00
  0.8110E+00
  0.7641E+00
  0.7204E+00
  0.6799E+00
  0.6433E+00
  0.6105E+00
  0.5894E+00
  0.5888E+00
  0.5996E+00
  0.6373E+00
  0.7059E+00
  0.7856E+00
  0.8173E+00
  0.8074E+00
  0.7431E+00
  0.6483E+00
  0.5673E+00
  0.5386E+00
  0.5405E+00
  0.5566E+00
  0.5841E+00
  0.6023E+00
  0.5648E+00
  0.4131E+00
  0.2949E+00
  0.2659E+01
  0.2659E+01
  0.2659E+01
  0.2659E+01
  0.2659E+01
  0.2659E+01
  0.2659E+01
  0.2659E+01
  0.2658E+01
  0.2658E+01
  0.2656E+01
  0.2650E+01
  0.2632E+01
  0.2593E+01
  0.2526E+01
  0.2431E+01
  0.2321E+01
  0.2204E+01
  0.2087E+01
  0.1973E+01
  0.1862E+01
  0.1756E+01
  0.1656E+01
  0.1561E+01
  0.1471E+01
  0.1386E+01
  0.1306E+01
  0.1230E+01
  0.1159E+01
  0.1091E+01
  0.1027E+01
  0.9670E+00
  0.9101E+00
  0.8566E+00
  0.8061E+00
  0.7586E+00
  0.7140E+00
  0.6723E+00
  0.6335E+00
  0.5983E+00
  0.5649E+00
  0.5521E+00
  0.5547E+00
  0.5786E+00
  0.6405E+00
  0.7263E+00
  0.7977E+00
  0.8063E+00
  0.7794E+00
  0.6969E+00
  0.6035E+00
  0.5385E+00
  0.5288E+00
  0.5350E+00
  0.5579E+00
  0.5867E+00
  0.5889E+00
  0.5106E+00
  0.3540E+00
  0.2572E+00
  0.2516E+01
  0.2516E+01
  0.2516E+01
  0.2516E+01
  0.2516E+01
  0.2516E+01
  0.2516E+01
  0.2516E+01
  0.2516E+01
  0.2516E+01
  0.2515E+01
  0.2509E+01
  0.2494E+01
  0.2460E+01
  0.2398E+01
  0.2310E+01
  0.2206E+01
  0.2094E+01
  0.1982E+01
  0.1872E+01
  0.1766E+01
  0.1664E+01
  0.1568E+01
  0.1476E+01
  0.1390E+01
  0.1309E+01
  0.1232E+01
  0.1160E+01
  0.1091E+01
  0.1027E+01
  0.9656E+00
  0.9080E+00
  0.8537E+00
  0.8027E+00
  0.7546E+00
  0.7093E+00
  0.6668E+00
  0.6270E+00
  0.5899E+00
  0.5551E+00
  0.5249E+00
  0.5209E+00
  0.5341E+00
  0.5835E+00
  0.6651E+00
  0.7573E+00
  0.7995E+00
  0.7928E+00
  0.7379E+00
  0.6451E+00
  0.5591E+00
  0.5203E+00
  0.5208E+00
  0.5345E+00
  0.5627E+00
  0.5840E+00
  0.5642E+00
  0.4402E+00
  0.3041E+00
  0.2305E+00
  0.2380E+01
  0.2380E+01
  0.2380E+01
  0.2380E+01
  0.2380E+01
  0.2380E+01
  0.2380E+01
  0.2380E+01
  0.2379E+01
  0.2379E+01
  0.2378E+01
  0.2374E+01
  0.2361E+01
  0.2331E+01
  0.2275E+01
  0.2194E+01
  0.2095E+01
  0.1989E+01
  0.1881E+01
  0.1776E+01
  0.1674E+01
  0.1576E+01
  0.1484E+01
  0.1396E+01
  0.1313E+01
  0.1235E+01
  0.1162E+01
  0.1093E+01
  0.1027E+01
  0.9655E+00
  0.9072E+00
  0.8523E+00
  0.8006E+00
  0.7519E+00
  0.7061E+00
  0.6629E+00
  0.6225E+00
  0.5842E+00
  0.5485E+00
  0.5122E+00
  0.4962E+00
  0.5023E+00
  0.5394E+00
  0.6121E+00
  0.7062E+00
  0.7823E+00
  0.7910E+00
  0.7652E+00
  0.6836E+00
  0.5891E+00
  0.5228E+00
  0.5117E+00
  0.5174E+00
  0.5387E+00
  0.5675E+00
  0.5721E+00
  0.5127E+00
  0.3707E+00
  0.2648E+00
  0.2139E+00
  0.2249E+01
  0.2249E+01
  0.2249E+01
  0.2249E+01
  0.2249E+01
  0.2249E+01
  0.2249E+01
  0.2249E+01
  0.2249E+01
  0.2249E+01
  0.2248E+01
  0.2244E+01
  0.2233E+01
  0.2207E+01
  0.2157E+01
  0.2082E+01
  0.1989E+01
  0.1888E+01
  0.1785E+01
  0.1684E+01
  0.1586E+01
  0.1493E+01
  0.1404E+01
  0.1320E+01
  0.1241E+01
  0.1166E+01
  0.1096E+01
  0.1029E+01
  0.9669E+00
  0.9079E+00
  0.8523E+00
  0.7998E+00
  0.7505E+00
  0.7042E+00
  0.6605E+00
  0.6195E+00
  0.5805E+00
  0.5440E+00
  0.5072E+00
  0.4794E+00
  0.4807E+00
  0.5079E+00
  0.5695E+00
  0.6577E+00
  0.7517E+00
  0.7854E+00
  0.7752E+00
  0.7127E+00
  0.6174E+00
  0.5357E+00
  0.5044E+00
  0.5056E+00
  0.5193E+00
  0.5472E+00
  0.5665E+00
  0.5476E+00
  0.4382E+00
  0.3129E+00
  0.2355E+00
  0.2052E+00
  0.2125E+01
  0.2125E+01
  0.2125E+01
  0.2125E+01
  0.2125E+01
  0.2125E+01
  0.2125E+01
  0.2125E+01
  0.2125E+01
  0.2125E+01
  0.2124E+01
  0.2121E+01
  0.2112E+01
  0.2089E+01
  0.2045E+01
  0.1976E+01
  0.1889E+01
  0.1792E+01
  0.1694E+01
  0.1597E+01
  0.1504E+01
  0.1414E+01
  0.1329E+01
  0.1248E+01
  0.1172E+01
  0.1101E+01
  0.1033E+01
  0.9698E+00
  0.9101E+00
  0.8537E+00
  0.8005E+00
  0.7505E+00
  0.7035E+00
  0.6593E+00
  0.6178E+00
  0.5783E+00
  0.5411E+00
  0.5041E+00
  0.4704E+00
  0.4678E+00
  0.4863E+00
  0.5387E+00
  0.6173E+00
  0.7124E+00
  0.7728E+00
  0.7732E+00
  0.7295E+00
  0.6370E+00
  0.5491E+00
  0.5015E+00
  0.4981E+00
  0.5054E+00
  0.5288E+00
  0.5532E+00
  0.5534E+00
  0.4903E+00
  0.3644E+00
  0.2681E+00
  0.2164E+00
  0.2016E+00
  0.2007E+01
  0.2007E+01
  0.2007E+01
  0.2007E+01
  0.2007E+01
  0.2007E+01
  0.2007E+01
  0.2007E+01
  0.2007E+01
  0.2007E+01
  0.2007E+01
  0.2004E+01
  0.1997E+01
  0.1977E+01
  0.1938E+01
  0.1875E+01
  0.1793E+01
  0.1702E+01
  0.1608E+01
  0.1515E+01
  0.1425E+01
  0.1339E+01
  0.1257E+01
  0.1180E+01
  0.1107E+01
  0.1039E+01
  0.9743E+00
  0.9137E+00
  0.8565E+00
  0.8026E+00
  0.7519E+00
  0.7041E+00
  0.6593E+00
  0.6172E+00
  0.5773E+00
  0.5395E+00
  0.5022E+00
  0.4659E+00
  0.4612E+00
  0.4729E+00
  0.5165E+00
  0.5868E+00
  0.6813E+00
  0.7581E+00
  0.7664E+00
  0.7352E+00
  0.6468E+00
  0.5568E+00
  0.5007E+00
  0.4912E+00
  0.4961E+00
  0.5144E+00
  0.5393E+00
  0.5496E+00
  0.5178E+00
  0.4107E+00
  0.3048E+00
  0.2358E+00
  0.2061E+00
  0.2004E+00
  0.1896E+01
  0.1896E+01
  0.1896E+01
  0.1896E+01
  0.1896E+01
  0.1896E+01
  0.1896E+01
  0.1896E+01
  0.1896E+01
  0.1896E+01
  0.1896E+01
  0.1894E+01
  0.1888E+01
  0.1871E+01
  0.1836E+01
  0.1779E+01
  0.1703E+01
  0.1616E+01
  0.1527E+01
  0.1438E+01
  0.1352E+01
  0.1269E+01
  0.1190E+01
  0.1116E+01
  0.1046E+01
  0.9806E+00
  0.9189E+00
  0.8608E+00
  0.8061E+00
  0.7545E+00
  0.7061E+00
  0.6605E+00
  0.6178E+00
  0.5773E+00
  0.5389E+00
  0.5015E+00
  0.4637E+00
  0.4572E+00
  0.4652E+00
  0.5023E+00
  0.5633E+00
  0.6499E+00
  0.7390E+00
  0.7592E+00
  0.7352E+00
  0.6502E+00
  0.5586E+00
  0.4995E+00
  0.4873E+00
  0.4901E+00
  0.5040E+00
  0.5272E+00
  0.5409E+00
  0.5269E+00
  0.4467E+00
  0.3398E+00
  0.2599E+00
  0.2155E+00
  0.2018E+00
  0.2001E+00
  0.1791E+01
  0.1791E+01
  0.1791E+01
  0.1791E+01
  0.1791E+01
  0.1791E+01
  0.1791E+01
  0.1791E+01
  0.1791E+01
  0.1791E+01
  0.1791E+01
  0.1789E+01
  0.1784E+01
  0.1770E+01
  0.1740E+01
  0.1688E+01
  0.1617E+01
  0.1535E+01
  0.1450E+01
  0.1365E+01
  0.1282E+01
  0.1203E+01
  0.1127E+01
  0.1056E+01
  0.9888E+00
  0.9258E+00
  0.8666E+00
  0.8109E+00
  0.7586E+00
  0.7093E+00
  0.6629E+00
  0.6195E+00
  0.5783E+00
  0.5394E+00
  0.5015E+00
  0.4635E+00
  0.4549E+00
  0.4617E+00
  0.4936E+00
  0.5468E+00
  0.6248E+00
  0.7175E+00
  0.7498E+00
  0.7325E+00
  0.6526E+00
  0.5597E+00
  0.4991E+00
  0.4861E+00
  0.4873E+00
  0.4973E+00
  0.5183E+00
  0.5327E+00
  0.5274E+00
  0.4693E+00
  0.3691E+00
  0.2842E+00
  0.2290E+00
  0.2053E+00
  0.2004E+00
  0.2000E+00
  0.1692E+01
  0.1692E+01
  0.1692E+01
  0.1692E+01
  0.1692E+01
  0.1692E+01
  0.1692E+01
  0.1692E+01
  0.1692E+01
  0.1692E+01
  0.1692E+01
  0.1691E+01
  0.1687E+01
  0.1675E+01
  0.1648E+01
  0.1602E+01
  0.1536E+01
  0.1459E+01
  0.1377E+01
  0.1296E+01
  0.1216E+01
  0.1140E+01
  0.1068E+01
  0.9991E+00
  0.9347E+00
  0.8742E+00
  0.8174E+00
  0.7641E+00
  0.7139E+00
  0.6668E+00
  0.6224E+00
  0.5805E+00
  0.5411E+00
  0.5024E+00
  0.4646E+00
  0.4548E+00
  0.4602E+00
  0.4884E+00
  0.5385E+00
  0.6090E+00
  0.6967E+00
  0.7392E+00
  0.7294E+00
  0.6584E+00
  0.5631E+00
  0.5020E+00
  0.4877E+00
  0.4877E+00
  0.4945E+00
  0.5127E+00
  0.5271E+00
  0.5255E+00
  0.4817E+00
  0.3911E+00
  0.3057E+00
  0.2442E+00
  0.2113E+00
  0.2013E+00
  0.2001E+00
  0.2000E+00
  0.1599E+01
  0.1599E+01
  0.1599E+01
  0.1599E+01
  0.1599E+01
  0.1599E+01
  0.1599E+01
  0.1599E+01
  0.1599E+01
  0.1599E+01
  0.1599E+01
  0.1598E+01
  0.1595E+01
  0.1585E+01
  0.1562E+01
  0.1520E+01
  0.1460E+01
  0.1387E+01
  0.1309E+01
  0.1231E+01
  0.1155E+01
  0.1082E+01
  0.1012E+01
  0.9461E+00
  0.8841E+00
  0.8260E+00
  0.7715E+00
  0.7203E+00
  0.6723E+00
  0.6269E+00
  0.5842E+00
  0.5440E+00
  0.5039E+00
  0.4662E+00
  0.4562E+00
  0.4622E+00
  0.4886E+00
  0.5324E+00
  0.6000E+00
  0.6893E+00
  0.7372E+00
  0.7303E+00
  0.6661E+00
  0.5705E+00
  0.5074E+00
  0.4919E+00
  0.4903E+00
  0.4957E+00
  0.5107E+00
  0.5237E+00
  0.5231E+00
  0.4879E+00
  0.4057E+00
  0.3225E+00
  0.2584E+00
  0.2189E+00
  0.2033E+00
  0.2003E+00
  0.2000E+00
  0.2000E+00
  0.1513E+01
  0.1513E+01
  0.1513E+01
  0.1513E+01
  0.1513E+01
  0.1513E+01
  0.1513E+01
  0.1513E+01
  0.1513E+01
  0.1513E+01
  0.1513E+01
  0.1512E+01
  0.1509E+01
  0.1501E+01
  0.1481E+01
  0.1444E+01
  0.1389E+01
  0.1320E+01
  0.1246E+01
  0.1171E+01
  0.1098E+01
  0.1028E+01
  0.9606E+00
  0.8972E+00
  0.8376E+00
  0.7816E+00
  0.7291E+00
  0.6798E+00
  0.6334E+00
  0.5898E+00
  0.5485E+00
  0.5069E+00
  0.4708E+00
  0.4594E+00
  0.4654E+00
  0.4929E+00
  0.5363E+00
  0.5977E+00
  0.6831E+00
  0.7395E+00
  0.7347E+00
  0.6771E+00
  0.5811E+00
  0.5146E+00
  0.4971E+00
  0.4948E+00
  0.4990E+00
  0.5110E+00
  0.5224E+00
  0.5218E+00
  0.4913E+00
  0.4145E+00
  0.3342E+00
  0.2701E+00
  0.2269E+00
  0.2062E+00
  0.2007E+00
  0.2000E+00
  0.2000E+00
  0.2000E+00
  0.1434E+01
  0.1434E+01
  0.1434E+01
  0.1434E+01
  0.1434E+01
  0.1434E+01
  0.1434E+01
  0.1434E+01
  0.1434E+01
  0.1434E+01
  0.1434E+01
  0.1434E+01
  0.1431E+01
  0.1425E+01
  0.1408E+01
  0.1375E+01
  0.1324E+01
  0.1260E+01
  0.1189E+01
  0.1118E+01
  0.1047E+01
  0.9794E+00
  0.9146E+00
  0.8534E+00
  0.7957E+00
  0.7416E+00
  0.6908E+00
  0.6432E+00
  0.5983E+00
  0.5550E+00
  0.5120E+00
  0.4800E+00
  0.4669E+00
  0.4732E+00
  0.5026E+00
  0.5476E+00
  0.6064E+00
  0.6817E+00
  0.7365E+00
  0.7364E+00
  0.6877E+00
  0.5914E+00
  0.5218E+00
  0.5019E+00
  0.4994E+00
  0.5025E+00
  0.5127E+00
  0.5225E+00
  0.5216E+00
  0.4935E+00
  0.4205E+00
  0.3421E+00
  0.2785E+00
  0.2339E+00
  0.2096E+00
  0.2015E+00
  0.2001E+00
  0.2000E+00
  0.2000E+00
  0.2000E+00
  0.1367E+01
  0.1367E+01
  0.1367E+01
  0.1367E+01
  0.1367E+01
  0.1367E+01
  0.1367E+01
  0.1367E+01
  0.1367E+01
  0.1367E+01
  0.1367E+01
  0.1366E+01
  0.1365E+01
  0.1359E+01
  0.1345E+01
  0.1316E+01
  0.1269E+01
  0.1208E+01
  0.1141E+01
  0.1072E+01
  0.1004E+01
  0.9388E+00
  0.8760E+00
  0.8165E+00
  0.7604E+00
  0.7076E+00
  0.6577E+00
  0.6104E+00
  0.5649E+00
  0.5250E+00
  0.4964E+00
  0.4805E+00
  0.4871E+00
  0.5158E+00
  0.5640E+00
  0.6291E+00
  0.6987E+00
  0.7338E+00
  0.7320E+00
  0.6872E+00
  0.5964E+00
  0.5275E+00
  0.5055E+00
  0.5031E+00
  0.5056E+00
  0.5146E+00
  0.5236E+00
  0.5223E+00
  0.4944E+00
  0.4231E+00
  0.3469E+00
  0.2843E+00
  0.2393E+00
  0.2129E+00
  0.2025E+00
  0.2002E+00
  0.2000E+00
  0.2000E+00
  0.2000E+00
  0.2000E+00
  0.1314E+01
  0.1314E+01
  0.1314E+01
  0.1314E+01
  0.1314E+01
  0.1314E+01
  0.1314E+01
  0.1314E+01
  0.1314E+01
  0.1314E+01
  0.1314E+01
  0.1314E+01
  0.1313E+01
  0.1308E+01
  0.1296E+01
  0.1271E+01
  0.1229E+01
  0.1173E+01
  0.1108E+01
  0.1041E+01
  0.9751E+00
  0.9104E+00
  0.8483E+00
  0.7893E+00
  0.7335E+00
  0.6813E+00
  0.6330E+00
  0.5893E+00
  0.5520E+00
  0.5207E+00
  0.5015E+00
  0.5081E+00
  0.5384E+00
  0.5851E+00
  0.6494E+00
  0.7221E+00
  0.7469E+00
  0.7310E+00
  0.6753E+00
  0.5915E+00
  0.5269E+00
  0.5063E+00
  0.5053E+00
  0.5078E+00
  0.5164E+00
  0.5250E+00
  0.5236E+00
  0.4960E+00
  0.4246E+00
  0.3490E+00
  0.2877E+00
  0.2431E+00
  0.2156E+00
  0.2036E+00
  0.2004E+00
  0.2000E+00
  0.2000E+00
  0.2000E+00
  0.2000E+00
  0.2000E+00
  0.1303E+01
  0.1303E+01
  0.1303E+01
  0.1303E+01
  0.1303E+01
  0.1303E+01
  0.1303E+01
  0.1303E+01
  0.1303E+01
  0.1303E+01
  0.1303E+01
  0.1302E+01
  0.1301E+01
  0.1298E+01
  0.1288E+01
  0.1264E+01
  0.1224E+01
  0.1169E+01
  0.1105E+01
  0.1038E+01
  0.9715E+00
  0.9064E+00
  0.8437E+00
  0.7840E+00
  0.7283E+00
  0.6770E+00
  0.6301E+00
  0.5887E+00
  0.5543E+00
  0.5338E+00
  0.5399E+00
  0.5695E+00
  0.6178E+00
  0.6780E+00
  0.7361E+00
  0.7493E+00
  0.7345E+00
  0.6682E+00
  0.5812E+00
  0.5218E+00
  0.5050E+00
  0.5050E+00
  0.5079E+00
  0.5170E+00
  0.5258E+00
  0.5247E+00
  0.4974E+00
  0.4261E+00
  0.3506E+00
  0.2895E+00
  0.2454E+00
  0.2176E+00
  0.2045E+00
  0.2007E+00
  0.2001E+00
  0.2000E+00
  0.2000E+00
  0.2000E+00
  0.2000E+00
  0.2000E+00
  0.1308E+01
  0.1308E+01
  0.1308E+01
  0.1308E+01
  0.1308E+01
  0.1308E+01
  0.1308E+01
  0.1308E+01
  0.1308E+01
  0.1308E+01
  0.1307E+01
  0.1307E+01
  0.1306E+01
  0.1303E+01
  0.1294E+01
  0.1273E+01
  0.1236E+01
  0.1182E+01
  0.1118E+01
  0.1049E+01
  0.9801E+00
  0.9127E+00
  0.8484E+00
  0.7881E+00
  0.7324E+00
  0.6816E+00
  0.6366E+00
  0.5994E+00
  0.5784E+00
  0.5842E+00
  0.6116E+00
  0.6576E+00
  0.7155E+00
  0.7565E+00
  0.7554E+00
  0.7328E+00
  0.6591E+00
  0.5722E+00
  0.5152E+00
  0.5021E+00
  0.5035E+00
  0.5072E+00
  0.5164E+00
  0.5256E+00
  0.5249E+00
  0.4979E+00
  0.4267E+00
  0.3514E+00
  0.2906E+00
  0.2467E+00
  0.2189E+00
  0.2052E+00
  0.2009E+00
  0.2001E+00
  0.2000E+00
  0.2000E+00
  0.2000E+00
  0.2000E+00
  0.2000E+00
  0.2000E+00
  0.1325E+01
  0.1325E+01
  0.1325E+01
  0.1325E+01
  0.1325E+01
  0.1325E+01
  0.1325E+01
  0.1325E+01
  0.1325E+01
  0.1325E+01
  0.1325E+01
  0.1325E+01
  0.1324E+01
  0.1322E+01
  0.1314E+01
  0.1295E+01
  0.1259E+01
  0.1205E+01
  0.1140E+01
  0.1070E+01
  0.9982E+00
  0.9287E+00
  0.8630E+00
  0.8023E+00
  0.7469E+00
  0.6982E+00
  0.6595E+00
  0.6371E+00
  0.6411E+00
  0.6651E+00
  0.7061E+00
  0.7513E+00
  0.7748E+00
  0.7664E+00
  0.7335E+00
  0.6519E+00
  0.5637E+00
  0.5082E+00
  0.4968E+00
  0.5001E+00
  0.5061E+00
  0.5162E+00
  0.5253E+00
  0.5245E+00
  0.4976E+00
  0.4266E+00
  0.3516E+00
  0.2910E+00
  0.2474E+00
  0.2195E+00
  0.2057E+00
  0.2011E+00
  0.2001E+00
  0.2000E+00
  0.2000E+00
  0.2000E+00
  0.2000E+00
  0.2000E+00
  0.2000E+00
  0.2000E+00
  0.1343E+01
  0.1343E+01
  0.1343E+01
  0.1343E+01
  0.1343E+01
  0.1343E+01
  0.1343E+01
  0.1343E+01
  0.1343E+01
  0.1343E+01
  0.1343E+01
  0.1343E+01
  0.1343E+01
  0.1341E+01
  0.1333E+01
  0.1316E+01
  0.1281E+01
  0.1228E+01
  0.1161E+01
  0.1089E+01
  0.1016E+01
  0.9455E+00
  0.8802E+00
  0.8209E+00
  0.7694E+00
  0.7289E+00
  0.7049E+00
  0.7064E+00
  0.7258E+00
  0.7580E+00
  0.7819E+00
  0.7843E+00
  0.7745E+00
  0.7346E+00
  0.6496E+00
  0.5592E+00
  0.5017E+00
  0.4911E+00
  0.4951E+00
  0.5030E+00
  0.5150E+00
  0.5250E+00
  0.5243E+00
  0.4974E+00
  0.4264E+00
  0.3515E+00
  0.2911E+00
  0.2477E+00
  0.2200E+00
  0.2060E+00
  0.2012E+00
  0.2001E+00
  0.2000E+00
  0.2000E+00
  0.2000E+00
  0.2000E+00
  0.2000E+00
  0.2000E+00
  0.2000E+00
  0.2000E+00
  0.1354E+01
  0.1354E+01
  0.1354E+01
  0.1354E+01
  0.1354E+01
  0.1354E+01
  0.1354E+01
  0.1354E+01
  0.1354E+01
  0.1354E+01
  0.1354E+01
  0.1354E+01
  0.1353E+01
  0.1351E+01
  0.1344E+01
  0.1327E+01
  0.1293E+01
  0.1240E+01
  0.1173E+01
  0.1101E+01
  0.1029E+01
  0.9609E+00
  0.8987E+00
  0.8451E+00
  0.8030E+00
  0.7767E+00
  0.7730E+00
  0.7851E+00
  0.7982E+00
  0.7988E+00
  0.7913E+00
  0.7753E+00
  0.7296E+00
  0.6469E+00
  0.5585E+00
  0.4992E+00
  0.4875E+00
  0.4900E+00
  0.4987E+00
  0.5126E+00
  0.5239E+00
  0.5237E+00
  0.4975E+00
  0.4265E+00
  0.3514E+00
  0.2911E+00
  0.2478E+00
  0.2202E+00
  0.2061E+00
  0.2012E+00
  0.2002E+00
  0.2000E+00
  0.2000E+00
  0.2000E+00
  0.2000E+00
  0.2000E+00
  0.2000E+00
  0.2000E+00
  0.2000E+00
  0.2000E+00
  0.1353E+01
  0.1353E+01
  0.1353E+01
  0.1353E+01
  0.1353E+01
  0.1353E+01
  0.1353E+01
  0.1353E+01
  0.1353E+01
  0.1353E+01
  0.1353E+01
  0.1353E+01
  0.1352E+01
  0.1350E+01
  0.1343E+01
  0.1326E+01
  0.1292E+01
  0.1239E+01
  0.1173E+01
  0.1102E+01
  0.1033E+01
  0.9698E+00
  0.9158E+00
  0.8726E+00
  0.8432E+00
  0.8288E+00
  0.8240E+00
  0.8171E+00
  0.8071E+00
  0.7928E+00
  0.7650E+00
  0.7129E+00
  0.6375E+00
  0.5568E+00
  0.4997E+00
  0.4862E+00
  0.4875E+00
  0.4952E+00
  0.5103E+00
  0.5223E+00
  0.5223E+00
  0.4966E+00
  0.4263E+00
  0.3514E+00
  0.2910E+00
  0.2478E+00
  0.2202E+00
  0.2062E+00
  0.2013E+00
  0.2002E+00
  0.2000E+00
  0.2000E+00
  0.2000E+00
  0.2000E+00
  0.2000E+00
  0.2000E+00
  0.2000E+00
  0.2000E+00
  0.2000E+00
  0.2000E+00
  0.1337E+01
  0.1337E+01
  0.1337E+01
  0.1337E+01
  0.1337E+01
  0.1337E+01
  0.1337E+01
  0.1337E+01
  0.1337E+01
  0.1337E+01
  0.1337E+01
  0.1337E+01
  0.1336E+01
  0.1333E+01
  0.1325E+01
  0.1307E+01
  0.1273E+01
  0.1221E+01
  0.1158E+01
  0.1092E+01
  0.1027E+01
  0.9688E+00
  0.9195E+00
  0.8827E+00
  0.8566E+00
  0.8385E+00
  0.8254E+00
  0.8075E+00
  0.7793E+00
  0.7378E+00
  0.6836E+00
  0.6175E+00
  0.5493E+00
  0.5006E+00
  0.4878E+00
  0.4878E+00
  0.4946E+00
  0.5102E+00
  0.5218E+00
  0.5212E+00
  0.4946E+00
  0.4252E+00
  0.3509E+00
  0.2907E+00
  0.2475E+00
  0.2200E+00
  0.2062E+00
  0.2013E+00
  0.2002E+00
  0.2000E+00
  0.2000E+00
  0.2000E+00
  0.2000E+00
  0.2000E+00
  0.2000E+00
  0.2000E+00
  0.2000E+00
  0.2000E+00
  0.2000E+00
  0.2000E+00
  0.1265E+01
  0.1265E+01
  0.1265E+01
  0.1265E+01
  0.1265E+01
  0.1265E+01
  0.1265E+01
  0.1265E+01
  0.1265E+01
  0.1265E+01
  0.1265E+01
  0.1264E+01
  0.1263E+01
  0.1259E+01
  0.1250E+01
  0.1230E+01
  0.1197E+01
  0.1151E+01
  0.1096E+01
  0.1041E+01
  0.9897E+00
  0.9453E+00
  0.9062E+00
  0.8713E+00
  0.8420E+00
  0.8147E+00
  0.7825E+00
  0.7430E+00
  0.6969E+00
  0.6451E+00
  0.5890E+00
  0.5357E+00
  0.5017E+00
  0.4917E+00
  0.4906E+00
  0.4977E+00
  0.5132E+00
  0.5236E+00
  0.5215E+00
  0.4928E+00
  0.4230E+00
  0.3493E+00
  0.2897E+00
  0.2468E+00
  0.2196E+00
  0.2060E+00
  0.2012E+00
  0.2002E+00
  0.2000E+00
  0.2000E+00
  0.2000E+00
  0.2000E+00
  0.2000E+00
  0.2000E+00
  0.2000E+00
  0.2000E+00
  0.2000E+00
  0.2000E+00
  0.2000E+00
  0.2000E+00
  0.1136E+01
  0.1136E+01
  0.1136E+01
  0.1136E+01
  0.1136E+01
  0.1136E+01
  0.1136E+01
  0.1136E+01
  0.1136E+01
  0.1136E+01
  0.1136E+01
  0.1135E+01
  0.1133E+01
  0.1128E+01
  0.1118E+01
  0.1099E+01
  0.1069E+01
  0.1032E+01
  0.9894E+00
  0.9469E+00
  0.9067E+00
  0.8709E+00
  0.8377E+00
  0.8043E+00
  0.7688E+00
  0.7317E+00
  0.6915E+00
  0.6484E+00
  0.6034E+00
  0.5589E+00
  0.5228E+00
  0.5048E+00
  0.4977E+00
  0.4962E+00
  0.5038E+00
  0.5190E+00
  0.5280E+00
  0.5233E+00
  0.4911E+00
  0.4202E+00
  0.3467E+00
  0.2877E+00
  0.2455E+00
  0.2189E+00
  0.2057E+00
  0.2012E+00
  0.2002E+00
  0.2000E+00
  0.2000E+00
  0.2000E+00
  0.2000E+00
  0.2000E+00
  0.2000E+00
  0.2000E+00
  0.2000E+00
  0.2000E+00
  0.2000E+00
  0.2000E+00
  0.2000E+00
  0.2000E+00
  0.9833E+00
  0.9833E+00
  0.9833E+00
  0.9833E+00
  0.9833E+00
  0.9833E+00
  0.9833E+00
  0.9833E+00
  0.9833E+00
  0.9832E+00
  0.9830E+00
  0.9821E+00
  0.9797E+00
  0.9739E+00
  0.9628E+00
  0.9449E+00
  0.9208E+00
  0.8925E+00
  0.8623E+00
  0.8319E+00
  0.8015E+00
  0.7713E+00
  0.7407E+00
  0.7084E+00
  0.6743E+00
  0.6387E+00
  0.6023E+00
  0.5673E+00
  0.5384E+00
  0.5204E+00
  0.5116E+00
  0.5059E+00
  0.5058E+00
  0.5137E+00
  0.5273E+00
  0.5341E+00
  0.5261E+00
  0.4879E+00
  0.4151E+00
  0.3422E+00
  0.2844E+00
  0.2432E+00
  0.2177E+00
  0.2053E+00
  0.2011E+00
  0.2001E+00
  0.2000E+00
  0.2000E+00
  0.2000E+00
  0.2000E+00
  0.2000E+00
  0.2000E+00
  0.2000E+00
  0.2000E+00
  0.2000E+00
  0.2000E+00
  0.2000E+00
  0.2000E+00
  0.2000E+00
  0.2000E+00
  0.8473E+00
  0.8473E+00
  0.8473E+00
  0.8473E+00
  0.8473E+00
  0.8473E+00
  0.8473E+00
  0.8473E+00
  0.8473E+00
  0.8472E+00
  0.8469E+00
  0.8458E+00
  0.8428E+00
  0.8364E+00
  0.8253E+00
  0.8095E+00
  0.7904E+00
  0.7698E+00
  0.7481E+00
  0.7253E+00
  0.7018E+00
  0.6773E+00
  0.6516E+00
  0.6246E+00
  0.5974E+00
  0.5728E+00
  0.5527E+00
  0.5386E+00
  0.5288E+00
  0.5208E+00
  0.5170E+00
  0.5199E+00
  0.5287E+00
  0.5392E+00
  0.5408E+00
  0.5289E+00
  0.4815E+00
  0.4060E+00
  0.3345E+00
  0.2787E+00
  0.2395E+00
  0.2157E+00
  0.2045E+00
  0.2009E+00
  0.2001E+00
  0.2000E+00
  0.2000E+00
  0.2000E+00
  0.2000E+00
  0.2000E+00
  0.2000E+00
  0.2000E+00
  0.2000E+00
  0.2000E+00
  0.2000E+00
  0.2000E+00
  0.2000E+00
  0.2000E+00
  0.2000E+00
  0.2000E+00
  0.7568E+00
  0.7568E+00
  0.7568E+00
  0.7568E+00
  0.7568E+00
  0.7568E+00
  0.7568E+00
  0.7568E+00
  0.7567E+00
  0.7566E+00
  0.7562E+00
  0.7549E+00
  0.7516E+00
  0.7450E+00
  0.7343E+00
  0.7205E+00
  0.7051E+00
  0.6887E+00
  0.6717E+00
  0.6539E+00
  0.6360E+00
  0.6186E+00
  0.6016E+00
  0.5859E+00
  0.5723E+00
  0.5604E+00
  0.5494E+00
  0.5404E+00
  0.5351E+00
  0.5346E+00
  0.5387E+00
  0.5473E+00
  0.5536E+00
  0.5487E+00
  0.5279E+00
  0.4689E+00
  0.3913E+00
  0.3225E+00
  0.2701E+00
  0.2340E+00
  0.2129E+00
  0.2036E+00
  0.2007E+00
  0.2001E+00
  0.2000E+00
  0.2000E+00
  0.2000E+00
  0.2000E+00
  0.2000E+00
  0.2000E+00
  0.2000E+00
  0.2000E+00
  0.2000E+00
  0.2000E+00
  0.2000E+00
  0.2000E+00
  0.2000E+00
  0.2000E+00
  0.2000E+00
  0.2000E+00
  0.7254E+00
  0.7254E+00
  0.7254E+00
  0.7254E+00