# vtk DataFile Version 3.0
vtk output
ASCII
DATASET RECTILINEAR_GRID
DIMENSIONS          61          61 1
X_COORDINATES    61 double
  0.0000E+00
  0.1667E+00
  0.3333E+00
  0.5000E+00
  0.6667E+00
  0.8333E+00
  0.1000E+01
  0.1167E+01
  0.1333E+01
  0.1500E+01
  0.1667E+01
  0.1833E+01
  0.2000E+01
  0.2167E+01
  0.2333E+01
  0.2500E+01
  0.2667E+01
  0.2833E+01
  0.3000E+01
  0.3167E+01
  0.3333E+01
  0.3500E+01
  0.3667E+01
  0.3833E+01
  0.4000E+01
  0.4167E+01
  0.4333E+01
  0.4500E+01
  0.4667E+01
  0.4833E+01
  0.5000E+01
  0.5167E+01
  0.5333E+01
  0.5500E+01
  0.5667E+01
  0.5833E+01
  0.6000E+01
  0.6167E+01
  0.6333E+01
  0.6500E+01
  0.6667E+01
  0.6833E+01
  0.7000E+01
  0.7167E+01
  0.7333E+01
  0.7500E+01
  0.7667E+01
  0.7833E+01
  0.8000E+01
  0.8167E+01
  0.8333E+01
  0.8500E+01
  0.8667E+01
  0.8833E+01
  0.9000E+01
  0.9167E+01
  0.9333E+01
  0.9500E+01
  0.9667E+01
  0.9833E+01
  0.1000E+02
Y_COORDINATES    61 double
  0.0000E+00
  0.1667E+00
  0.3333E+00
  0.5000E+00
  0.6667E+00
  0.8333E+00
  0.1000E+01
  0.1167E+01
  0.1333E+01
  0.1500E+01
  0.1667E+01
  0.1833E+01
  0.2000E+01
  0.2167E+01
  0.2333E+01
  0.2500E+01
  0.2667E+01
  0.2833E+01
  0.3000E+01
  0.3167E+01
  0.3333E+01
  0.3500E+01
  0.3667E+01
  0.3833E+01
  0.4000E+01
  0.4167E+01
  0.4333E+01
  0.4500E+01
  0.4667E+01
  0.4833E+01
  0.5000E+01
  0.5167E+01
  0.5333E+01
  0.5500E+01
  0.5667E+01
  0.5833E+01
  0.6000E+01
  0.6167E+01
  0.6333E+01
  0.6500E+01
  0.6667E+01
  0.6833E+01
  0.7000E+01
  0.7167E+01
  0.7333E+01
  0.7500E+01
  0.7667E+01
  0.7833E+01
  0.8000E+01
  0.8167E+01
  0.8333E+01
  0.8500E+01
  0.8667E+01
  0.8833E+01
  0.9000E+01
  0.9167E+01
  0.9333E+01
  0.9500E+01
  0.9667E+01
  0.9833E+01
  0.1000E+02
Z_COORDINATES 1 double
0
CELL_DATA                 3600
FIELD FieldData 4
density 1                 3600 double
  0.5689E+01
  0.5689E+01
  0.5689E+01
  0.5689E+01
  0.5689E+01
  0.5689E+01
  0.5689E+01
  0.5689E+01
  0.5689E+01
  0.5689E+01
  0.5689E+01
  0.5689E+01
  0.5689E+01
  0.5689E+01
  0.5688E+01
  0.5684E+01
  0.5667E+01
  0.5612E+01
  0.5485E+01
  0.5264E+01
  0.4972E+01
  0.4648E+01
  0.4321E+01
  0.4005E+01
  0.3706E+01
  0.3429E+01
  0.3172E+01
  0.2934E+01
  0.2713E+01
  0.2509E+01
  0.2318E+01
  0.2138E+01
  0.1970E+01
  0.1816E+01
  0.1676E+01
  0.1556E+01
  0.1460E+01
  0.1393E+01
  0.1348E+01
  0.1324E+01
  0.1313E+01
  0.1290E+01
  0.1210E+01
  0.1068E+01
  0.9047E+00
  0.7708E+00
  0.7054E+00
  0.7017E+00
  0.7014E+00
  0.6414E+00
  0.4277E+00
  0.2658E+00
  0.2067E+00
  0.2001E+00
  0.2000E+00
  0.2000E+00
  0.2000E+00
  0.2000E+00
  0.2000E+00
  0.2000E+00
  0.5513E+01
  0.5513E+01
  0.5513E+01
  0.5513E+01
  0.5513E+01
  0.5513E+01
  0.5513E+01
  0.5513E+01
  0.5513E+01
  0.5513E+01
  0.5513E+01
  0.5513E+01
  0.5513E+01
  0.5513E+01
  0.5512E+01
  0.5508E+01
  0.5492E+01
  0.5440E+01
  0.5317E+01
  0.5105E+01
  0.4822E+01
  0.4509E+01
  0.4193E+01
  0.3886E+01
  0.3598E+01
  0.3331E+01
  0.3083E+01
  0.2854E+01
  0.2642E+01
  0.2446E+01
  0.2263E+01
  0.2091E+01
  0.1930E+01
  0.1781E+01
  0.1647E+01
  0.1531E+01
  0.1440E+01
  0.1376E+01
  0.1334E+01
  0.1312E+01
  0.1301E+01
  0.1278E+01
  0.1198E+01
  0.1055E+01
  0.8917E+00
  0.7587E+00
  0.6952E+00
  0.6925E+00
  0.6929E+00
  0.6339E+00
  0.4228E+00
  0.2641E+00
  0.2064E+00
  0.2000E+00
  0.2000E+00
  0.2000E+00
  0.2000E+00
  0.2000E+00
  0.2000E+00
  0.2000E+00
  0.5215E+01
  0.5215E+01
  0.5215E+01
  0.5215E+01
  0.5215E+01
  0.5215E+01
  0.5215E+01
  0.5215E+01
  0.5215E+01
  0.5215E+01
  0.5215E+01
  0.5215E+01
  0.5215E+01
  0.5215E+01
  0.5215E+01
  0.5211E+01
  0.5197E+01
  0.5149E+01
  0.5035E+01
  0.4836E+01
  0.4569E+01
  0.4272E+01
  0.3972E+01
  0.3682E+01
  0.3409E+01
  0.3157E+01
  0.2924E+01
  0.2709E+01
  0.2510E+01
  0.2326E+01
  0.2155E+01
  0.1995E+01
  0.1845E+01
  0.1707E+01
  0.1582E+01
  0.1475E+01
  0.1391E+01
  0.1334E+01
  0.1296E+01
  0.1278E+01
  0.1268E+01
  0.1245E+01
  0.1166E+01
  0.1025E+01
  0.8655E+00
  0.7366E+00
  0.6787E+00
  0.6774E+00
  0.6790E+00
  0.6211E+00
  0.4138E+00
  0.2608E+00
  0.2058E+00
  0.2000E+00
  0.2000E+00
  0.2000E+00
  0.2000E+00
  0.2000E+00
  0.2000E+00
  0.2000E+00
  0.4871E+01
  0.4871E+01
  0.4871E+01
  0.4871E+01
  0.4871E+01
  0.4871E+01
  0.4871E+01
  0.4871E+01
  0.4871E+01
  0.4871E+01
  0.4871E+01
  0.4871E+01
  0.4871E+01
  0.4871E+01
  0.4870E+01
  0.4867E+01
  0.4854E+01
  0.4812E+01
  0.4708E+01
  0.4524E+01
  0.4275E+01
  0.3996E+01
  0.3714E+01
  0.3441E+01
  0.3185E+01
  0.2948E+01
  0.2729E+01
  0.2528E+01
  0.2343E+01
  0.2172E+01
  0.2013E+01
  0.1864E+01
  0.1726E+01
  0.1599E+01
  0.1485E+01
  0.1387E+01
  0.1312E+01
  0.1261E+01
  0.1228E+01
  0.1213E+01
  0.1206E+01
  0.1185E+01
  0.1109E+01
  0.9778E+00
  0.8295E+00
  0.7094E+00
  0.6599E+00
  0.6605E+00
  0.6633E+00
  0.6031E+00
  0.3999E+00
  0.2556E+00
  0.2049E+00
  0.2000E+00
  0.2000E+00
  0.2000E+00
  0.2000E+00
  0.2000E+00
  0.2000E+00
  0.2000E+00
  0.4519E+01
  0.4519E+01
  0.4519E+01
  0.4519E+01
  0.4519E+01
  0.4519E+01
  0.4519E+01
  0.4519E+01
  0.4519E+01
  0.4519E+01
  0.4519E+01
  0.4519E+01
  0.4519E+01
  0.4519E+01
  0.4519E+01
  0.4516E+01
  0.4505E+01
  0.4467E+01
  0.4374E+01
  0.4206E+01
  0.3975E+01
  0.3715E+01
  0.3450E+01
  0.3194E+01
  0.2953E+01
  0.2730E+01
  0.2526E+01
  0.2337E+01
  0.2164E+01
  0.2005E+01
  0.1857E+01
  0.1719E+01
  0.1591E+01
  0.1474E+01
  0.1369E+01
  0.1280E+01
  0.1211E+01
  0.1166E+01
  0.1135E+01
  0.1122E+01
  0.1117E+01
  0.1101E+01
  0.1035E+01
  0.9201E+00
  0.7889E+00
  0.6806E+00
  0.6411E+00
  0.6442E+00
  0.6472E+00
  0.5803E+00
  0.3812E+00
  0.2485E+00
  0.2038E+00
  0.2000E+00
  0.2000E+00
  0.2000E+00
  0.2000E+00
  0.2000E+00
  0.2000E+00
  0.2000E+00
  0.4178E+01
  0.4178E+01
  0.4178E+01
  0.4178E+01
  0.4178E+01
  0.4178E+01
  0.4178E+01
  0.4178E+01
  0.4178E+01
  0.4178E+01
  0.4178E+01
  0.4178E+01
  0.4178E+01
  0.4178E+01
  0.4177E+01
  0.4175E+01
  0.4166E+01
  0.4133E+01
  0.4050E+01
  0.3898E+01
  0.3684E+01
  0.3442E+01
  0.3194E+01
  0.2953E+01
  0.2727E+01
  0.2518E+01
  0.2326E+01
  0.2150E+01
  0.1988E+01
  0.1839E+01
  0.1702E+01
  0.1573E+01
  0.1454E+01
  0.1346E+01
  0.1249E+01
  0.1167E+01
  0.1104E+01
  0.1062E+01
  0.1031E+01
  0.1020E+01
  0.1017E+01
  0.1008E+01
  0.9586E+00
  0.8624E+00
  0.7480E+00
  0.6516E+00
  0.6225E+00
  0.6291E+00
  0.6317E+00
  0.5516E+00
  0.3585E+00
  0.2399E+00
  0.2026E+00
  0.2000E+00
  0.2000E+00
  0.2000E+00
  0.2000E+00
  0.2000E+00
  0.2000E+00
  0.2000E+00
  0.3856E+01
  0.3856E+01
  0.3856E+01
  0.3856E+01
  0.3856E+01
  0.3856E+01
  0.3856E+01
  0.3856E+01
  0.3856E+01
  0.3856E+01
  0.3856E+01
  0.3856E+01
  0.3856E+01
  0.3856E+01
  0.3855E+01
  0.3854E+01
  0.3846E+01
  0.3818E+01
  0.3745E+01
  0.3607E+01
  0.3411E+01
  0.3185E+01
  0.2953E+01
  0.2727E+01
  0.2515E+01
  0.2319E+01
  0.2139E+01
  0.1973E+01
  0.1822E+01
  0.1682E+01
  0.1554E+01
  0.1434E+01
  0.1323E+01
  0.1222E+01
  0.1133E+01
  0.1057E+01
  0.9988E+00
  0.9587E+00
  0.9261E+00
  0.9181E+00
  0.9197E+00
  0.9184E+00
  0.8911E+00
  0.8113E+00
  0.7091E+00
  0.6241E+00
  0.6056E+00
  0.6156E+00
  0.6158E+00
  0.5165E+00
  0.3331E+00
  0.2305E+00
  0.2016E+00
  0.2000E+00
  0.2000E+00
  0.2000E+00
  0.2000E+00
  0.2000E+00
  0.2000E+00
  0.2000E+00
  0.3557E+01
  0.3557E+01
  0.3557E+01
  0.3557E+01
  0.3557E+01
  0.3557E+01
  0.3557E+01
  0.3557E+01
  0.3557E+01
  0.3557E+01
  0.3557E+01
  0.3557E+01
  0.3557E+01
  0.3557E+01
  0.3556E+01
  0.3555E+01
  0.3548E+01
  0.3525E+01
  0.3461E+01
  0.3338E+01
  0.3158E+01
  0.2948E+01
  0.2730E+01
  0.2518E+01
  0.2319E+01
  0.2135E+01
  0.1965E+01
  0.1810E+01
  0.1668E+01
  0.1538E+01
  0.1417E+01
  0.1305E+01
  0.1202E+01
  0.1108E+01
  0.1025E+01
  0.9544E+00
  0.9000E+00
  0.8611E+00
  0.8296E+00
  0.8244E+00
  0.8329E+00
  0.8421E+00
  0.8330E+00
  0.7704E+00
  0.6716E+00
  0.5980E+00
  0.5896E+00
  0.6039E+00
  0.5962E+00
  0.4741E+00
  0.3065E+00
  0.2212E+00
  0.2009E+00
  0.2000E+00
  0.2000E+00
  0.2000E+00
  0.2000E+00
  0.2000E+00
  0.2000E+00
  0.2000E+00
  0.3280E+01
  0.3280E+01
  0.3280E+01
  0.3280E+01
  0.3280E+01
  0.3280E+01
  0.3280E+01
  0.3280E+01
  0.3280E+01
  0.3280E+01
  0.3280E+01
  0.3280E+01
  0.3280E+01
  0.3280E+01
  0.3280E+01
  0.3279E+01
  0.3273E+01
  0.3253E+01
  0.3199E+01
  0.3089E+01
  0.2925E+01
  0.2729E+01
  0.2525E+01
  0.2326E+01
  0.2139E+01
  0.1965E+01
  0.1806E+01
  0.1660E+01
  0.1527E+01
  0.1405E+01
  0.1292E+01
  0.1188E+01
  0.1091E+01
  0.1004E+01
  0.9263E+00
  0.8605E+00
  0.8102E+00
  0.7707E+00
  0.7448E+00
  0.7440E+00
  0.7640E+00
  0.7897E+00
  0.7869E+00
  0.7305E+00
  0.6316E+00
  0.5743E+00
  0.5758E+00
  0.5925E+00
  0.5704E+00
  0.4250E+00
  0.2801E+00
  0.2131E+00
  0.2004E+00
  0.2000E+00
  0.2000E+00
  0.2000E+00
  0.2000E+00
  0.2000E+00
  0.2000E+00
  0.2000E+00
  0.3024E+01
  0.3024E+01
  0.3024E+01
  0.3024E+01
  0.3024E+01
  0.3024E+01
  0.3024E+01
  0.3024E+01
  0.3024E+01
  0.3024E+01
  0.3024E+01
  0.3024E+01
  0.3024E+01
  0.3024E+01
  0.3024E+01
  0.3023E+01
  0.3019E+01
  0.3002E+01
  0.2956E+01
  0.2859E+01
  0.2709E+01
  0.2528E+01
  0.2337E+01
  0.2150E+01
  0.1973E+01
  0.1810E+01
  0.1660E+01
  0.1524E+01
  0.1399E+01
  0.1284E+01
  0.1179E+01
  0.1081E+01
  0.9910E+00
  0.9093E+00
  0.8372E+00
  0.7759E+00
  0.7292E+00
  0.6886E+00
  0.6756E+00
  0.6811E+00
  0.7211E+00
  0.7610E+00
  0.7547E+00
  0.6850E+00
  0.5895E+00
  0.5564E+00
  0.5665E+00
  0.5805E+00
  0.5311E+00
  0.3742E+00
  0.2555E+00
  0.2070E+00
  0.2002E+00
  0.2000E+00
  0.2000E+00
  0.2000E+00
  0.2000E+00
  0.2000E+00
  0.2000E+00
  0.2000E+00
  0.2788E+01
  0.2788E+01
  0.2788E+01
  0.2788E+01
  0.2788E+01
  0.2788E+01
  0.2788E+01
  0.2788E+01
  0.2788E+01
  0.2788E+01
  0.2788E+01
  0.2788E+01
  0.2788E+01
  0.2788E+01
  0.2788E+01
  0.2787E+01
  0.2784E+01
  0.2770E+01
  0.2731E+01
  0.2646E+01
  0.2510E+01
  0.2342E+01
  0.2164E+01
  0.1988E+01
  0.1821E+01
  0.1668E+01
  0.1527E+01
  0.1399E+01
  0.1282E+01
  0.1175E+01
  0.1076E+01
  0.9843E+00
  0.9001E+00
  0.8240E+00
  0.7566E+00
  0.7001E+00
  0.6547E+00
  0.6219E+00
  0.6197E+00
  0.6429E+00
  0.7161E+00
  0.7465E+00
  0.7222E+00
  0.6307E+00
  0.5521E+00
  0.5440E+00
  0.5623E+00
  0.5629E+00
  0.4761E+00
  0.3265E+00
  0.2345E+00
  0.2032E+00
  0.2001E+00
  0.2000E+00
  0.2000E+00
  0.2000E+00
  0.2000E+00
  0.2000E+00
  0.2000E+00
  0.2000E+00
  0.2570E+01
  0.2570E+01
  0.2570E+01
  0.2570E+01
  0.2570E+01
  0.2570E+01
  0.2570E+01
  0.2570E+01
  0.2570E+01
  0.2570E+01
  0.2570E+01
  0.2570E+01
  0.2570E+01
  0.2570E+01
  0.2570E+01
  0.2569E+01
  0.2567E+01
  0.2556E+01
  0.2523E+01
  0.2449E+01
  0.2327E+01
  0.2172E+01
  0.2005E+01
  0.1839E+01
  0.1682E+01
  0.1538E+01
  0.1405E+01
  0.1284E+01
  0.1175E+01
  0.1074E+01
  0.9816E+00
  0.8959E+00
  0.8173E+00
  0.7464E+00
  0.6834E+00
  0.6313E+00
  0.5862E+00
  0.5748E+00
  0.5862E+00
  0.6513E+00
  0.7245E+00
  0.7282E+00
  0.6687E+00
  0.5699E+00
  0.5279E+00
  0.5359E+00
  0.5549E+00
  0.5328E+00
  0.4098E+00
  0.2850E+00
  0.2185E+00
  0.2012E+00
  0.2000E+00
  0.2000E+00
  0.2000E+00
  0.2000E+00
  0.2000E+00
  0.2000E+00
  0.2000E+00
  0.2000E+00
  0.2367E+01
  0.2367E+01
  0.2367E+01
  0.2367E+01
  0.2367E+01
  0.2367E+01
  0.2367E+01
  0.2367E+01
  0.2367E+01
  0.2367E+01
  0.2367E+01
  0.2367E+01
  0.2367E+01
  0.2367E+01
  0.2367E+01
  0.2367E+01
  0.2365E+01
  0.2356E+01
  0.2329E+01
  0.2265E+01
  0.2156E+01
  0.2013E+01
  0.1857E+01
  0.1701E+01
  0.1554E+01
  0.1417E+01
  0.1292E+01
  0.1179E+01
  0.1076E+01
  0.9816E+00
  0.8948E+00
  0.8147E+00
  0.7414E+00
  0.6747E+00
  0.6168E+00
  0.5640E+00
  0.5391E+00
  0.5470E+00
  0.5962E+00
  0.6859E+00
  0.7177E+00
  0.6900E+00
  0.5947E+00
  0.5209E+00
  0.5158E+00
  0.5351E+00
  0.5393E+00
  0.4783E+00
  0.3469E+00
  0.2514E+00
  0.2083E+00
  0.2004E+00
  0.2000E+00
  0.2000E+00
  0.2000E+00
  0.2000E+00
  0.2000E+00
  0.2000E+00
  0.2000E+00
  0.2000E+00
  0.2178E+01
  0.2178E+01
  0.2178E+01
  0.2178E+01
  0.2178E+01
  0.2178E+01
  0.2178E+01
  0.2178E+01
  0.2178E+01
  0.2178E+01
  0.2178E+01
  0.2178E+01
  0.2178E+01
  0.2178E+01
  0.2178E+01
  0.2178E+01
  0.2176E+01
  0.2169E+01
  0.2147E+01
  0.2092E+01
  0.1995E+01
  0.1864E+01
  0.1719E+01
  0.1573E+01
  0.1434E+01
  0.1305E+01
  0.1188E+01
  0.1081E+01
  0.9843E+00
  0.8959E+00
  0.8147E+00
  0.7400E+00
  0.6710E+00
  0.6095E+00
  0.5505E+00
  0.5136E+00
  0.5198E+00
  0.5585E+00
  0.6430E+00
  0.7000E+00
  0.6912E+00
  0.6175E+00
  0.5259E+00
  0.5001E+00
  0.5143E+00
  0.5323E+00
  0.5092E+00
  0.4039E+00
  0.2943E+00
  0.2267E+00
  0.2030E+00
  0.2001E+00
  0.2000E+00
  0.2000E+00
  0.2000E+00
  0.2000E+00
  0.2000E+00
  0.2000E+00
  0.2000E+00
  0.2000E+00
  0.2002E+01
  0.2002E+01
  0.2002E+01
  0.2002E+01
  0.2002E+01
  0.2002E+01
  0.2002E+01
  0.2002E+01
  0.2002E+01
  0.2002E+01
  0.2002E+01
  0.2002E+01
  0.2002E+01
  0.2002E+01
  0.2002E+01
  0.2002E+01
  0.2001E+01
  0.1995E+01
  0.1977E+01
  0.1931E+01
  0.1845E+01
  0.1726E+01
  0.1591E+01
  0.1454E+01
  0.1323E+01
  0.1202E+01
  0.1091E+01
  0.9909E+00
  0.9000E+00
  0.8173E+00
  0.7414E+00
  0.6710E+00
  0.6075E+00
  0.5437E+00
  0.4999E+00
  0.5024E+00
  0.5325E+00
  0.6106E+00
  0.6870E+00
  0.6889E+00
  0.6303E+00
  0.5359E+00
  0.4930E+00
  0.4993E+00
  0.5190E+00
  0.5140E+00
  0.4453E+00
  0.3361E+00
  0.2540E+00
  0.2114E+00
  0.2008E+00
  0.2000E+00
  0.2000E+00
  0.2000E+00
  0.2000E+00
  0.2000E+00
  0.2000E+00
  0.2000E+00
  0.2000E+00
  0.2000E+00
  0.1840E+01
  0.1840E+01
  0.1840E+01
  0.1840E+01
  0.1840E+01
  0.1840E+01
  0.1840E+01
  0.1840E+01
  0.1840E+01
  0.1840E+01
  0.1840E+01
  0.1840E+01
  0.1840E+01
  0.1840E+01
  0.1840E+01
  0.1840E+01
  0.1839E+01
  0.1835E+01
  0.1821E+01
  0.1782E+01
  0.1707E+01
  0.1598E+01
  0.1473E+01
  0.1346E+01
  0.1222E+01
  0.1108E+01
  0.1004E+01
  0.9091E+00
  0.8239E+00
  0.7463E+00
  0.6747E+00
  0.6096E+00
  0.5437E+00
  0.4958E+00
  0.4950E+00
  0.5174E+00
  0.5820E+00
  0.6685E+00
  0.6853E+00
  0.6440E+00
  0.5487E+00
  0.4931E+00
  0.4926E+00
  0.5086E+00
  0.5112E+00
  0.4667E+00
  0.3688E+00
  0.2823E+00
  0.2261E+00
  0.2038E+00
  0.2002E+00
  0.2000E+00
  0.2000E+00
  0.2000E+00
  0.2000E+00
  0.2000E+00
  0.2000E+00
  0.2000E+00
  0.2000E+00
  0.2000E+00
  0.1696E+01
  0.1696E+01
  0.1696E+01
  0.1696E+01
  0.1696E+01
  0.1696E+01
  0.1696E+01
  0.1696E+01
  0.1696E+01
  0.1696E+01
  0.1696E+01
  0.1696E+01
  0.1696E+01
  0.1696E+01
  0.1696E+01
  0.1695E+01
  0.1695E+01
  0.1692E+01
  0.1680E+01
  0.1648E+01
  0.1582E+01
  0.1485E+01
  0.1369E+01
  0.1249E+01
  0.1133E+01
  0.1025E+01
  0.9261E+00
  0.8370E+00
  0.7565E+00
  0.6833E+00
  0.6167E+00
  0.5505E+00
  0.4994E+00
  0.4952E+00
  0.5093E+00
  0.5625E+00
  0.6523E+00
  0.6819E+00
  0.6547E+00
  0.5672E+00
  0.5005E+00
  0.4933E+00
  0.5036E+00
  0.5085E+00
  0.4771E+00
  0.3914E+00
  0.3057E+00
  0.2432E+00
  0.2100E+00
  0.2010E+00
  0.2000E+00
  0.2000E+00
  0.2000E+00
  0.2000E+00
  0.2000E+00
  0.2000E+00
  0.2000E+00
  0.2000E+00
  0.2000E+00
  0.2000E+00
  0.1570E+01
  0.1570E+01
  0.1570E+01
  0.1570E+01
  0.1570E+01
  0.1570E+01
  0.1570E+01
  0.1570E+01
  0.1570E+01
  0.1570E+01
  0.1570E+01
  0.1570E+01
  0.1570E+01
  0.1570E+01
  0.1570E+01
  0.1570E+01
  0.1570E+01
  0.1567E+01
  0.1558E+01
  0.1532E+01
  0.1475E+01
  0.1387E+01
  0.1280E+01
  0.1167E+01
  0.1057E+01
  0.9542E+00
  0.8604E+00
  0.7758E+00
  0.7000E+00
  0.6312E+00
  0.5642E+00
  0.5135E+00
  0.5021E+00
  0.5184E+00
  0.5619E+00
  0.6354E+00
  0.6791E+00
  0.6657E+00
  0.5885E+00
  0.5137E+00
  0.4980E+00
  0.5046E+00
  0.5075E+00
  0.4829E+00
  0.4055E+00
  0.3228E+00
  0.2585E+00
  0.2184E+00
  0.2029E+00
  0.2002E+00
  0.2000E+00
  0.2000E+00
  0.2000E+00
  0.2000E+00
  0.2000E+00
  0.2000E+00
  0.2000E+00
  0.2000E+00
  0.2000E+00
  0.2000E+00
  0.1471E+01
  0.1471E+01
  0.1471E+01
  0.1471E+01
  0.1471E+01
  0.1471E+01
  0.1471E+01
  0.1471E+01
  0.1471E+01
  0.1471E+01
  0.1471E+01
  0.1471E+01
  0.1471E+01
  0.1471E+01
  0.1471E+01
  0.1471E+01
  0.1471E+01
  0.1469E+01
  0.1462E+01
  0.1440E+01
  0.1391E+01
  0.1312E+01
  0.1211E+01
  0.1104E+01
  0.9986E+00
  0.8999E+00
  0.8101E+00
  0.7290E+00
  0.6547E+00
  0.5858E+00
  0.5391E+00
  0.5191E+00
  0.5322E+00
  0.5842E+00
  0.6521E+00
  0.6807E+00
  0.6680E+00
  0.6016E+00
  0.5267E+00
  0.5050E+00
  0.5078E+00
  0.5086E+00
  0.4861E+00
  0.4131E+00
  0.3337E+00
  0.2701E+00
  0.2269E+00
  0.2060E+00
  0.2006E+00
  0.2000E+00
  0.2000E+00
  0.2000E+00
  0.2000E+00
  0.2000E+00
  0.2000E+00
  0.2000E+00
  0.2000E+00
  0.2000E+00
  0.2000E+00
  0.2000E+00
  0.1402E+01
  0.1402E+01
  0.1402E+01
  0.1402E+01
  0.1402E+01
  0.1402E+01
  0.1402E+01
  0.1402E+01
  0.1402E+01
  0.1402E+01
  0.1402E+01
  0.1402E+01
  0.1402E+01
  0.1402E+01
  0.1402E+01
  0.1402E+01
  0.1401E+01
  0.1400E+01
  0.1394E+01
  0.1376E+01
  0.1334E+01
  0.1261E+01
  0.1166E+01
  0.1062E+01
  0.9586E+00
  0.8610E+00
  0.7708E+00
  0.6882E+00
  0.6218E+00
  0.5749E+00
  0.5460E+00
  0.5583E+00
  0.6091E+00
  0.6705E+00
  0.6830E+00
  0.6656E+00
  0.6001E+00
  0.5328E+00
  0.5094E+00
  0.5104E+00
  0.5098E+00
  0.4872E+00
  0.4170E+00
  0.3403E+00
  0.2779E+00
  0.2338E+00
  0.2095E+00
  0.2014E+00
  0.2001E+00
  0.2000E+00
  0.2000E+00
  0.2000E+00
  0.2000E+00
  0.2000E+00
  0.2000E+00
  0.2000E+00
  0.2000E+00
  0.2000E+00
  0.2000E+00
  0.2000E+00
  0.1355E+01
  0.1355E+01
  0.1355E+01
  0.1355E+01
  0.1355E+01
  0.1355E+01
  0.1355E+01
  0.1355E+01
  0.1355E+01
  0.1355E+01
  0.1355E+01
  0.1355E+01
  0.1355E+01
  0.1355E+01
  0.1355E+01
  0.1355E+01
  0.1355E+01
  0.1354E+01
  0.1349E+01
  0.1334E+01
  0.1296E+01
  0.1228E+01
  0.1135E+01
  0.1031E+01
  0.9259E+00
  0.8295E+00
  0.7447E+00
  0.6759E+00
  0.6194E+00
  0.5856E+00
  0.5968E+00
  0.6426E+00
  0.6832E+00
  0.6843E+00
  0.6579E+00
  0.5873E+00
  0.5267E+00
  0.5088E+00
  0.5104E+00
  0.5102E+00
  0.4874E+00
  0.4178E+00
  0.3435E+00
  0.2829E+00
  0.2388E+00
  0.2127E+00
  0.2024E+00
  0.2002E+00
  0.2000E+00
  0.2000E+00
  0.2000E+00
  0.2000E+00
  0.2000E+00
  0.2000E+00
  0.2000E+00
  0.2000E+00
  0.2000E+00
  0.2000E+00
  0.2000E+00
  0.2000E+00
  0.1330E+01
  0.1330E+01
  0.1330E+01
  0.1330E+01
  0.1330E+01
  0.1330E+01
  0.1330E+01
  0.1330E+01
  0.1330E+01
  0.1330E+01
  0.1330E+01
  0.1330E+01
  0.1330E+01
  0.1330E+01
  0.1330E+01
  0.1330E+01
  0.1330E+01
  0.1329E+01
  0.1325E+01
  0.1312E+01
  0.1278E+01
  0.1213E+01
  0.1122E+01
  0.1020E+01
  0.9182E+00
  0.8243E+00
  0.7439E+00
  0.6808E+00
  0.6426E+00
  0.6511E+00
  0.6873E+00
  0.7022E+00
  0.6879E+00
  0.6426E+00
  0.5684E+00
  0.5148E+00
  0.5058E+00
  0.5104E+00
  0.5098E+00
  0.4851E+00
  0.4174E+00
  0.3438E+00
  0.2851E+00
  0.2422E+00
  0.2152E+00
  0.2034E+00
  0.2004E+00
  0.2000E+00
  0.2000E+00
  0.2000E+00
  0.2000E+00
  0.2000E+00
  0.2000E+00
  0.2000E+00
  0.2000E+00
  0.2000E+00
  0.2000E+00
  0.2000E+00
  0.2000E+00
  0.2000E+00
  0.1318E+01
  0.1318E+01
  0.1318E+01
  0.1318E+01
  0.1318E+01
  0.1318E+01
  0.1318E+01
  0.1318E+01
  0.1318E+01
  0.1318E+01
  0.1318E+01
  0.1318E+01
  0.1318E+01
  0.1318E+01
  0.1318E+01
  0.1318E+01
  0.1318E+01
  0.1317E+01
  0.1314E+01
  0.1301E+01
  0.1268E+01
  0.1206E+01
  0.1117E+01
  0.1017E+01
  0.9197E+00
  0.8329E+00
  0.7639E+00
  0.7207E+00
  0.7167E+00
  0.7242E+00
  0.7163E+00
  0.6931E+00
  0.6307E+00
  0.5499E+00
  0.5010E+00
  0.4986E+00
  0.5075E+00
  0.5111E+00
  0.4874E+00
  0.4164E+00
  0.3432E+00
  0.2852E+00
  0.2439E+00
  0.2171E+00
  0.2043E+00
  0.2006E+00
  0.2001E+00
  0.2000E+00
  0.2000E+00
  0.2000E+00
  0.2000E+00
  0.2000E+00
  0.2000E+00
  0.2000E+00
  0.2000E+00
  0.2000E+00
  0.2000E+00
  0.2000E+00
  0.2000E+00
  0.2000E+00
  0.1296E+01
  0.1296E+01
  0.1296E+01
  0.1296E+01
  0.1296E+01
  0.1296E+01
  0.1296E+01
  0.1296E+01
  0.1296E+01
  0.1296E+01
  0.1296E+01
  0.1296E+01
  0.1296E+01
  0.1296E+01
  0.1296E+01
  0.1296E+01
  0.1295E+01
  0.1295E+01
  0.1291E+01
  0.1278E+01
  0.1245E+01
  0.1185E+01
  0.1101E+01
  0.1008E+01
  0.9182E+00
  0.8420E+00
  0.7897E+00
  0.7613E+00
  0.7457E+00
  0.7282E+00
  0.6900E+00
  0.6155E+00
  0.5354E+00
  0.4939E+00
  0.4935E+00
  0.5029E+00
  0.5089E+00
  0.4880E+00
  0.4181E+00
  0.3435E+00
  0.2851E+00
  0.2439E+00
  0.2180E+00
  0.2051E+00
  0.2008E+00
  0.2001E+00
  0.2000E+00
  0.2000E+00
  0.2000E+00
  0.2000E+00
  0.2000E+00
  0.2000E+00
  0.2000E+00
  0.2000E+00
  0.2000E+00
  0.2000E+00
  0.2000E+00
  0.2000E+00
  0.2000E+00
  0.2000E+00
  0.1218E+01
  0.1218E+01
  0.1218E+01
  0.1218E+01
  0.1218E+01
  0.1218E+01
  0.1218E+01
  0.1218E+01
  0.1218E+01
  0.1218E+01
  0.1218E+01
  0.1218E+01
  0.1218E+01
  0.1218E+01
  0.1218E+01
  0.1218E+01
  0.1218E+01
  0.1216E+01
  0.1212E+01
  0.1198E+01
  0.1165E+01
  0.1109E+01
  0.1035E+01
  0.9583E+00
  0.8912E+00
  0.8326E+00
  0.7868E+00
  0.7546E+00
  0.7219E+00
  0.6688E+00
  0.5959E+00
  0.5252E+00
  0.4931E+00
  0.4932E+00
  0.5030E+00
  0.5070E+00
  0.4859E+00
  0.4171E+00
  0.3433E+00
  0.2850E+00
  0.2438E+00
  0.2180E+00
  0.2054E+00
  0.2010E+00
  0.2001E+00
  0.2000E+00
  0.2000E+00
  0.2000E+00
  0.2000E+00
  0.2000E+00
  0.2000E+00
  0.2000E+00
  0.2000E+00
  0.2000E+00
  0.2000E+00
  0.2000E+00
  0.2000E+00
  0.2000E+00
  0.2000E+00
  0.2000E+00
  0.1078E+01
  0.1078E+01
  0.1078E+01
  0.1078E+01
  0.1078E+01
  0.1078E+01
  0.1078E+01
  0.1078E+01
  0.1078E+01
  0.1078E+01
  0.1078E+01
  0.1078E+01
  0.1078E+01
  0.1078E+01
  0.1078E+01
  0.1078E+01
  0.1078E+01
  0.1076E+01
  0.1070E+01
  0.1055E+01
  0.1025E+01
  0.9775E+00
  0.9198E+00
  0.8621E+00
  0.8110E+00
  0.7704E+00
  0.7303E+00
  0.6845E+00
  0.6309E+00
  0.5693E+00
  0.5213E+00
  0.5014E+00
  0.5000E+00
  0.5085E+00
  0.5081E+00
  0.4833E+00
  0.4135E+00
  0.3405E+00
  0.2829E+00
  0.2423E+00
  0.2171E+00
  0.2051E+00
  0.2010E+00
  0.2001E+00
  0.2000E+00
  0.2000E+00
  0.2000E+00
  0.2000E+00
  0.2000E+00
  0.2000E+00
  0.2000E+00
  0.2000E+00
  0.2000E+00
  0.2000E+00
  0.2000E+00
  0.2000E+00
  0.2000E+00
  0.2000E+00
  0.2000E+00
  0.2000E+00
  0.9167E+00
  0.9167E+00
  0.9167E+00
  0.9167E+00
  0.9167E+00
  0.9167E+00
  0.9167E+00
  0.9167E+00
  0.9167E+00
  0.9167E+00
  0.9167E+00
  0.9167E+00
  0.9167E+00
  0.9167E+00
  0.9167E+00
  0.9166E+00
  0.9160E+00
  0.9139E+00
  0.9074E+00
  0.8922E+00
  0.8654E+00
  0.8292E+00
  0.7886E+00
  0.7478E+00
  0.7089E+00
  0.6716E+00
  0.6314E+00
  0.5891E+00
  0.5522E+00
  0.5281E+00
  0.5149E+00
  0.5147E+00
  0.5189E+00
  0.5117E+00
  0.4782E+00
  0.4060E+00
  0.3340E+00
  0.2781E+00
  0.2389E+00
  0.2153E+00
  0.2044E+00
  0.2008E+00
  0.2001E+00
  0.2000E+00
  0.2000E+00
  0.2000E+00
  0.2000E+00
  0.2000E+00
  0.2000E+00
  0.2000E+00
  0.2000E+00
  0.2000E+00
  0.2000E+00
  0.2000E+00
  0.2000E+00
  0.2000E+00
  0.2000E+00
  0.2000E+00
  0.2000E+00
  0.2000E+00
  0.7844E+00
  0.7844E+00
  0.7844E+00
  0.7844E+00
  0.7844E+00
  0.7844E+00
  0.7844E+00
  0.7844E+00
  0.7844E+00
  0.7844E+00
  0.7844E+00
  0.7844E+00
  0.7844E+00
  0.7844E+00
  0.7844E+00
  0.7843E+00
  0.7836E+00
  0.7811E+00
  0.7741E+00
  0.7594E+00
  0.7366E+00
  0.7093E+00
  0.6804E+00
  0.6514E+00
  0.6240E+00
  0.5979E+00
  0.5741E+00
  0.5566E+00
  0.5436E+00
  0.5360E+00
  0.5358E+00
  0.5312E+00
  0.5144E+00
  0.4668E+00
  0.3920E+00
  0.3228E+00
  0.2701E+00
  0.2338E+00
  0.2127E+00
  0.2034E+00
  0.2006E+00
  0.2001E+00
  0.2000E+00
  0.2000E+00
  0.2000E+00
  0.2000E+00
  0.2000E+00
  0.2000E+00
  0.2000E+00
  0.2000E+00
  0.2000E+00
  0.2000E+00
  0.2000E+00
  0.2000E+00
  0.2000E+00
  0.2000E+00
  0.2000E+00
  0.2000E+00
  0.2000E+00
  0.2000E+00
  0.7199E+00
  0.7199E+00
  0.7199E+00
  0.7199E+00
  0.7199E+00
  0.7199E+00
  0.7199E+00
  0.7199E+00
  0.7199E+00
  0.7199E+00
  0.7199E+00
  0.7199E+00
  0.7199E+00
  0.7199E+00
  0.7199E+00
  0.7197E+00
  0.7189E+00
  0.7162E+00
  0.7091E+00
  0.6961E+00
  0.6788E+00
  0.6599E+00
  0.6411E+00
  0.6223E+00
  0.6055E+00
  0.5895E+00
  0.5758E+00
  0.5664E+00
  0.5624E+00
  0.5549E+00
  0.5400E+00
  0.5086E+00
  0.4442E+00
  0.3693E+00
  0.3058E+00
  0.2585E+00
  0.2269E+00
  0.2095E+00
  0.2024E+00
  0.2004E+00
  0.2001E+00
  0.2000E+00
  0.2000E+00
  0.2000E+00
  0.2000E+00
  0.2000E+00
  0.2000E+00
  0.2000E+00
  0.2000E+00
  0.2000E+00
  0.2000E+00
  0.2000E+00
  0.2000E+00
  0.2000E+00
  0.2000E+00
  0.2000E+00
  0.2000E+00
  0.2000E+00
  0.2000E+00
  0.2000E+00
  0.7162E+00
  0.7162E+00
  0.7162E+00
  0.7162E+00
  0.7162E+00
  0.7162E+00
  0.7162E+00
  0.7162E+00
  0.7162E+00
  0.7162E+00
  0.7162E+00
  0.7162E+00
  0.7162E+00
  0.7162E+00
  0.7162E+00
  0.7160E+00
  0.7152E+00
  0.7123E+00
  0.7054E+00
  0.6934E+00
  0.6776E+00
  0.6605E+00
  0.6442E+00
  0.6290E+00
  0.6155E+00
  0.6039E+00
  0.5924E+00
  0.5803E+00
  0.5629E+00
  0.5331E+00
  0.4780E+00
  0.4039E+00
  0.3358E+00
  0.2822E+00
  0.2432E+00
  0.2184E+00
  0.2060E+00
  0.2014E+00
  0.2002E+00
  0.2000E+00
  0.2000E+00
  0.2000E+00
  0.2000E+00
  0.2000E+00
  0.2000E+00
  0.2000E+00
  0.2000E+00
  0.2000E+00
  0.2000E+00
  0.2000E+00
  0.2000E+00
  0.2000E+00
  0.2000E+00
  0.2000E+00
  0.2000E+00
  0.2000E+00
  0.2000E+00
  0.2000E+00
  0.2000E+00
  0.2000E+00
  0.7156E+00
  0.7156E+00
  0.7156E+00
  0.7156E+00
  0.7156E+00
  0.7156E+00
  0.7156E+00
  0.7156E+00
  0.7156E+00
  0.7156E+00
  0.7156E+00
  0.7156E+00
  0.7156E+00
  0.7156E+00
  0.7155E+00
  0.7154E+00
  0.7145E+00
  0.7117E+00
  0.7051E+00
  0.6939E+00
  0.6792E+00
  0.6635E+00
  0.6472E+00
  0.6317E+00
  0.6157E+00
  0.5960E+00
  0.5704E+00
  0.5310E+00
  0.4756E+00
  0.4095E+00
  0.3468E+00
  0.2942E+00
  0.2539E+00
  0.2260E+00
  0.2100E+00
  0.2029E+00
  0.2006E+00
  0.2001E+00
  0.2000E+00
  0.2000E+00
  0.2000E+00
  0.2000E+00
  0.2000E+00
  0.2000E+00
  0.2000E+00
  0.2000E+00
  0.2000E+00
  0.2000E+00
  0.2000E+00
  0.2000E+00
  0.2000E+00
  0.2000E+00
  0.2000E+00
  0.2000E+00
  0.2000E+00
  0.2000E+00
  0.2000E+00
  0.2000E+00
  0.2000E+00
  0.2000E+00
  0.6546E+00
  0.6546E+00
  0.6546E+00
  0.6546E+00
  0.6546E+00
  0.6546E+00
  0.6546E+00
  0.6546E+00
  0.6546E+00
  0.6546E+00
  0.6546E+00
  0.6546E+00
  0.6546E+00
  0.6546E+00
  0.6545E+00
  0.6544E+00
  0.6535E+00
  0.6509E+00
  0.6449E+00
  0.6350E+00
  0.6212E+00
  0.6030E+00
  0.5802E+00
  0.5514E+00
  0.5163E+00
  0.4739E+00
  0.4249E+00
  0.3741E+00
  0.3263E+00
  0.2849E+00
  0.2513E+00
  0.2267E+00
  0.2114E+00
  0.2038E+00
  0.2010E+00
  0.2002E+00
  0.2000E+00
  0.2000E+00
  0.2000E+00
  0.2000E+00
  0.2000E+00
  0.2000E+00
  0.2000E+00
  0.2000E+00
  0.2000E+00
  0.2000E+00
  0.2000E+00
  0.2000E+00
  0.2000E+00
  0.2000E+00
  0.2000E+00
  0.2000E+00
  0.2000E+00
  0.2000E+00
  0.2000E+00
  0.2000E+00
  0.2000E+00
  0.2000E+00
  0.2000E+00
  0.2000E+00
  0.4358E+00
  0.4358E+00
  0.4358E+00
  0.4358E+00
  0.4358E+00
  0.4358E+00
  0.4358E+00
  0.4358E+00
  0.4358E+00
  0.4358E+00
  0.4358E+00
  0.4358E+00
  0.4358E+00
  0.4358E+00
  0.4358E+00
  0.4357E+00
  0.4352E+00
  0.4336E+00
  0.4300E+00
  0.4237E+00
  0.4138E+00
  0.3998E+00
  0.3812E+00
  0.3585E+00
  0.3330E+00
  0.3065E+00
  0.2800E+00
  0.2555E+00
  0.2345E+00
  0.2185E+00
  0.2083E+00
  0.2030E+00
  0.2008E+00
  0.2002E+00
  0.2000E+00
  0.2000E+00
  0.2000E+00
  0.2000E+00
  0.2000E+00
  0.2000E+00
  0.2000E+00
  0.2000E+00
  0.2000E+00
  0.2000E+00
  0.2000E+00
  0.2000E+00
  0.2000E+00
  0.2000E+00
  0.2000E+00
  0.2000E+00
  0.2000E+00
  0.2000E+00
  0.2000E+00
  0.2000E+00
  0.2000E+00
  0.2000E+00
  0.2000E+00
  0.2000E+00
  0.2000E+00
  0.2000E+00
  0.2683E+00
  0.2683E+00
  0.2683E+00
  0.2683E+00
  0.2683E+00
  0.2683E+00
  0.2683E+00
  0.2683E+00
  0.2683E+00
  0.2683E+00
  0.2683E+00
  0.2683E+00
  0.2683E+00
  0.2683E+00
  0.2683E+00
  0.2683E+00
  0.2681E+00
  0.2677E+00
  0.2666E+00
  0.2645E+00
  0.2609E+00
  0.2556E+00
  0.2485E+00
  0.2399E+00
  0.2305E+00
  0.2212E+00
  0.2131E+00
  0.2070E+00
  0.2032E+00
  0.2012E+00
  0.2004E+00
  0.2001E+00
  0.2000E+00
  0.2000E+00
  0.2000E+00
  0.2000E+00
  0.2000E+00
  0.2000E+00
  0.2000E+00
  0.2000E+00
  0.2000E+00
  0.2000E+00
  0.2000E+00
  0.2000E+00
  0.2000E+00
  0.2000E+00
  0.2000E+00
  0.2000E+00
  0.2000E+00
  0.2000E+00
  0.2000E+00
  0.2000E+00
  0.2000E+00
  0.2000E+00
  0.2000E+00
  0.2000E+00
  0.2000E+00
  0.2000E+00
  0.2000E+00
  0.2000E+00
  0.2072E+00
  0.2072E+00
  0.2072E+00
  0.2072E+00
  0.2072E+00
  0.2072E+00
  0.2072E+00
  0.2072E+00
  0.2072E+00
  0.2072E+00
  0.2072E+00
  0.2072E+00
  0.2072E+00
  0.2072E+00
  0.2072E+00
  0.2072E+00
  0.2072E+00
  0.2071E+00
  0.2069E+00
  0.2065E+00
  0.2058E+00
  0.2049E+00
  0.2038E+00
  0.2026E+00
  0.2016E+00
  0.2009E+00
  0.2004E+00
  0.2002E+00
  0.2001E+00
  0.2000E+00
  0.2000E+00
  0.2000E+00
  0.2000E+00
  0.2000E+00
  0.2000E+00
  0.2000E+00
  0.2000E+00
  0.2000E+00
  0.2000E+00
  0.2000E+00
  0.2000E+00
  0.2000E+00
  0.2000E+00
  0.2000E+00
  0.2000E+00
  0.2000E+00
  0.2000E+00
  0.2000E+00
  0.2000E+00
  0.2000E+00
  0.2000E+00
  0.2000E+00
  0.2000E+00
  0.2000E+00
  0.2000E+00
  0.2000E+00
  0.2000E+00
  0.2000E+00
  0.2000E+00
  0.2000E+00
  0.2001E+00
  0.2001E+00
  0.2001E+00
  0.2001E+00
  0.2001E+00
  0.2001E+00
  0.2001E+00
  0.2001E+00
  0.2001E+00
  0.2001E+00
  0.2001E+00
  0.2001E+00
  0.2001E+00
  0.2001E+00
  0.2001E+00
  0.2001E+00
  0.2001E+00
  0.2001E+00
  0.2001E+00
  0.2000E+00
  0.2000E+00
  0.2000E+00
  0.2000E+00
  0.2000E+00
  0.2000E+00
  0.2000E+00
  0.2000E+00
  0.2000E+00
  0.2000E+00
  0.2000E+00
  0.2000E+00
  0.2000E+00
  0.2000E+00
  0.2000E+00
  0.2000E+00
  0.2000E+00
  0.2000E+00
  0.2000E+00
  0.2000E+00
  0.2000E+00
  0.2000E+00
  0.2000E+00
  0.2000E+00
  0.2000E+00
  0.2000E+00
  0.2000E+00
  0.2000E+00
  0.2000E+00
  0.2000E+00
  0.2000E+00
  0.2000E+00
  0.2000E+00
  0.2000E+00
  0.2000E+00
  0.2000E+00
  0.2000E+00
  0.2000E+00
  0.2000E+00
  0.2000E+00
  0.2000E+00
  0.2000E+00
  0.2000E+00
  0.2000E+00
  0.2000E+00