# vtk DataFile Version 3.0
vtk output
ASCII
DATASET RECTILINEAR_GRID
DIMENSIONS          61          61 1
X_COORDINATES    61 double
  0.0000E+00
  0.1667E+00
  0.3333E+00
  0.5000E+00
  0.6667E+00
  0.8333E+00
  0.1000E+01
  0.1167E+01
  0.1333E+01
  0.1500E+01
  0.1667E+01
  0.1833E+01
  0.2000E+01
  0.2167E+01
  0.2333E+01
  0.2500E+01
  0.2667E+01
  0.2833E+01
  0.3000E+01
  0.3167E+01
  0.3333E+01
  0.3500E+01
  0.3667E+01
  0.3833E+01
  0.4000E+01
  0.4167E+01
  0.4333E+01
  0.4500E+01
  0.4667E+01
  0.4833E+01
  0.5000E+01
  0.5167E+01
  0.5333E+01
  0.5500E+01
  0.5667E+01
  0.5833E+01
  0.6000E+01
  0.6167E+01
  0.6333E+01
  0.6500E+01
  0.6667E+01
  0.6833E+01
  0.7000E+01
  0.7167E+01
  0.7333E+01
  0.7500E+01
  0.7667E+01
  0.7833E+01
  0.8000E+01
  0.8167E+01
  0.8333E+01
  0.8500E+01
  0.8667E+01
  0.8833E+01
  0.9000E+01
  0.9167E+01
  0.9333E+01
  0.9500E+01
  0.9667E+01
  0.9833E+01
  0.1000E+02
Y_COORDINATES    61 double
  0.0000E+00
  0.1667E+00
  0.3333E+00
  0.5000E+00
  0.6667E+00
  0.8333E+00
  0.1000E+01
  0.1167E+01
  0.1333E+01
  0.1500E+01
  0.1667E+01
  0.1833E+01
  0.2000E+01
  0.2167E+01
  0.2333E+01
  0.2500E+01
  0.2667E+01
  0.2833E+01
  0.3000E+01
  0.3167E+01
  0.3333E+01
  0.3500E+01
  0.3667E+01
  0.3833E+01
  0.4000E+01
  0.4167E+01
  0.4333E+01
  0.4500E+01
  0.4667E+01
  0.4833E+01
  0.5000E+01
  0.5167E+01
  0.5333E+01
  0.5500E+01
  0.5667E+01
  0.5833E+01
  0.6000E+01
  0.6167E+01
  0.6333E+01
  0.6500E+01
  0.6667E+01
  0.6833E+01
  0.7000E+01
  0.7167E+01
  0.7333E+01
  0.7500E+01
  0.7667E+01
  0.7833E+01
  0.8000E+01
  0.8167E+01
  0.8333E+01
  0.8500E+01
  0.8667E+01
  0.8833E+01
  0.9000E+01
  0.9167E+01
  0.9333E+01
  0.9500E+01
  0.9667E+01
  0.9833E+01
  0.1000E+02
Z_COORDINATES 1 double
0
CELL_DATA                 3600
FIELD FieldData 4
density 1                 3600 double
  0.2317E+01
  0.2317E+01
  0.2317E+01
  0.2317E+01
  0.2317E+01
  0.2317E+01
  0.2317E+01
  0.2317E+01
  0.2316E+01
  0.2316E+01
  0.2312E+01
  0.2303E+01
  0.2279E+01
  0.2234E+01
  0.2166E+01
  0.2082E+01
  0.1992E+01
  0.1900E+01
  0.1810E+01
  0.1723E+01
  0.1639E+01
  0.1559E+01
  0.1484E+01
  0.1413E+01
  0.1346E+01
  0.1283E+01
  0.1223E+01
  0.1167E+01
  0.1114E+01
  0.1064E+01
  0.1017E+01
  0.9723E+00
  0.9305E+00
  0.8915E+00
  0.8553E+00
  0.8222E+00
  0.7921E+00
  0.7668E+00
  0.7470E+00
  0.7433E+00
  0.7476E+00
  0.7641E+00
  0.7854E+00
  0.8053E+00
  0.8189E+00
  0.8208E+00
  0.8156E+00
  0.7825E+00
  0.7170E+00
  0.6447E+00
  0.5859E+00
  0.5612E+00
  0.5614E+00
  0.5703E+00
  0.5862E+00
  0.6045E+00
  0.5974E+00
  0.4830E+00
  0.3110E+00
  0.2233E+00
  0.2310E+01
  0.2310E+01
  0.2310E+01
  0.2310E+01
  0.2310E+01
  0.2310E+01
  0.2310E+01
  0.2310E+01
  0.2310E+01
  0.2309E+01
  0.2306E+01
  0.2296E+01
  0.2273E+01
  0.2228E+01
  0.2160E+01
  0.2077E+01
  0.1987E+01
  0.1895E+01
  0.1805E+01
  0.1718E+01
  0.1634E+01
  0.1554E+01
  0.1479E+01
  0.1408E+01
  0.1341E+01
  0.1278E+01
  0.1218E+01
  0.1162E+01
  0.1109E+01
  0.1059E+01
  0.1011E+01
  0.9666E+00
  0.9246E+00
  0.8853E+00
  0.8489E+00
  0.8154E+00
  0.7850E+00
  0.7593E+00
  0.7389E+00
  0.7343E+00
  0.7378E+00
  0.7531E+00
  0.7733E+00
  0.7920E+00
  0.8053E+00
  0.8087E+00
  0.8050E+00
  0.7758E+00
  0.7128E+00
  0.6424E+00
  0.5843E+00
  0.5598E+00
  0.5601E+00
  0.5691E+00
  0.5854E+00
  0.6031E+00
  0.5936E+00
  0.4736E+00
  0.3059E+00
  0.2217E+00
  0.2296E+01
  0.2296E+01
  0.2296E+01
  0.2296E+01
  0.2296E+01
  0.2296E+01
  0.2296E+01
  0.2296E+01
  0.2296E+01
  0.2295E+01
  0.2292E+01
  0.2283E+01
  0.2260E+01
  0.2216E+01
  0.2149E+01
  0.2066E+01
  0.1976E+01
  0.1885E+01
  0.1795E+01
  0.1708E+01
  0.1624E+01
  0.1544E+01
  0.1469E+01
  0.1398E+01
  0.1331E+01
  0.1267E+01
  0.1208E+01
  0.1151E+01
  0.1098E+01
  0.1047E+01
  0.9997E+00
  0.9545E+00
  0.9120E+00
  0.8723E+00
  0.8353E+00
  0.8012E+00
  0.7701E+00
  0.7437E+00
  0.7224E+00
  0.7157E+00
  0.7182E+00
  0.7312E+00
  0.7493E+00
  0.7661E+00
  0.7796E+00
  0.7865E+00
  0.7848E+00
  0.7626E+00
  0.7045E+00
  0.6366E+00
  0.5800E+00
  0.5572E+00
  0.5579E+00
  0.5677E+00
  0.5849E+00
  0.6019E+00
  0.5881E+00
  0.4589E+00
  0.2971E+00
  0.2186E+00
  0.2275E+01
  0.2275E+01
  0.2275E+01
  0.2275E+01
  0.2275E+01
  0.2275E+01
  0.2275E+01
  0.2275E+01
  0.2275E+01
  0.2274E+01
  0.2271E+01
  0.2262E+01
  0.2239E+01
  0.2196E+01
  0.2130E+01
  0.2048E+01
  0.1959E+01
  0.1868E+01
  0.1778E+01
  0.1691E+01
  0.1607E+01
  0.1528E+01
  0.1452E+01
  0.1381E+01
  0.1314E+01
  0.1250E+01
  0.1190E+01
  0.1133E+01
  0.1079E+01
  0.1028E+01
  0.9802E+00
  0.9344E+00
  0.8913E+00
  0.8509E+00
  0.8132E+00
  0.7783E+00
  0.7464E+00
  0.7191E+00
  0.6973E+00
  0.6875E+00
  0.6889E+00
  0.6996E+00
  0.7153E+00
  0.7309E+00
  0.7455E+00
  0.7573E+00
  0.7585E+00
  0.7438E+00
  0.6911E+00
  0.6262E+00
  0.5722E+00
  0.5530E+00
  0.5547E+00
  0.5657E+00
  0.5844E+00
  0.5995E+00
  0.5790E+00
  0.4372E+00
  0.2847E+00
  0.2146E+00
  0.2242E+01
  0.2242E+01
  0.2242E+01
  0.2242E+01
  0.2242E+01
  0.2242E+01
  0.2242E+01
  0.2242E+01
  0.2242E+01
  0.2241E+01
  0.2238E+01
  0.2230E+01
  0.2208E+01
  0.2167E+01
  0.2102E+01
  0.2021E+01
  0.1932E+01
  0.1842E+01
  0.1752E+01
  0.1665E+01
  0.1582E+01
  0.1502E+01
  0.1427E+01
  0.1355E+01
  0.1288E+01
  0.1224E+01
  0.1163E+01
  0.1106E+01
  0.1052E+01
  0.1000E+01
  0.9515E+00
  0.9053E+00
  0.8616E+00
  0.8207E+00
  0.7824E+00
  0.7470E+00
  0.7145E+00
  0.6865E+00
  0.6643E+00
  0.6521E+00
  0.6525E+00
  0.6611E+00
  0.6753E+00
  0.6908E+00
  0.7080E+00
  0.7264E+00
  0.7321E+00
  0.7217E+00
  0.6730E+00
  0.6109E+00
  0.5605E+00
  0.5469E+00
  0.5497E+00
  0.5628E+00
  0.5827E+00
  0.5964E+00
  0.5644E+00
  0.4073E+00
  0.2698E+00
  0.2104E+00
  0.2195E+01
  0.2195E+01
  0.2195E+01
  0.2195E+01
  0.2195E+01
  0.2195E+01
  0.2195E+01
  0.2195E+01
  0.2195E+01
  0.2195E+01
  0.2192E+01
  0.2184E+01
  0.2164E+01
  0.2124E+01
  0.2061E+01
  0.1982E+01
  0.1894E+01
  0.1804E+01
  0.1715E+01
  0.1629E+01
  0.1545E+01
  0.1466E+01
  0.1390E+01
  0.1319E+01
  0.1251E+01
  0.1187E+01
  0.1127E+01
  0.1069E+01
  0.1015E+01
  0.9632E+00
  0.9142E+00
  0.8679E+00
  0.8242E+00
  0.7832E+00
  0.7449E+00
  0.7095E+00
  0.6771E+00
  0.6489E+00
  0.6265E+00
  0.6129E+00
  0.6126E+00
  0.6201E+00
  0.6337E+00
  0.6509E+00
  0.6733E+00
  0.7000E+00
  0.7092E+00
  0.6992E+00
  0.6510E+00
  0.5910E+00
  0.5464E+00
  0.5384E+00
  0.5436E+00
  0.5592E+00
  0.5808E+00
  0.5909E+00
  0.5387E+00
  0.3750E+00
  0.2542E+00
  0.2066E+00
  0.2133E+01
  0.2133E+01
  0.2133E+01
  0.2133E+01
  0.2133E+01
  0.2133E+01
  0.2133E+01
  0.2133E+01
  0.2133E+01
  0.2132E+01
  0.2130E+01
  0.2122E+01
  0.2104E+01
  0.2066E+01
  0.2006E+01
  0.1929E+01
  0.1842E+01
  0.1754E+01
  0.1666E+01
  0.1580E+01
  0.1497E+01
  0.1419E+01
  0.1344E+01
  0.1272E+01
  0.1205E+01
  0.1142E+01
  0.1081E+01
  0.1024E+01
  0.9704E+00
  0.9192E+00
  0.8707E+00
  0.8249E+00
  0.7818E+00
  0.7414E+00
  0.7038E+00
  0.6690E+00
  0.6372E+00
  0.6095E+00
  0.5871E+00
  0.5730E+00
  0.5726E+00
  0.5799E+00
  0.5944E+00
  0.6158E+00
  0.6466E+00
  0.6819E+00
  0.6915E+00
  0.6782E+00
  0.6268E+00
  0.5683E+00
  0.5316E+00
  0.5288E+00
  0.5374E+00
  0.5560E+00
  0.5789E+00
  0.5806E+00
  0.5033E+00
  0.3410E+00
  0.2391E+00
  0.2037E+00
  0.2055E+01
  0.2055E+01
  0.2055E+01
  0.2055E+01
  0.2055E+01
  0.2055E+01
  0.2055E+01
  0.2055E+01
  0.2055E+01
  0.2054E+01
  0.2052E+01
  0.2046E+01
  0.2029E+01
  0.1994E+01
  0.1937E+01
  0.1862E+01
  0.1778E+01
  0.1691E+01
  0.1605E+01
  0.1521E+01
  0.1440E+01
  0.1362E+01
  0.1288E+01
  0.1218E+01
  0.1152E+01
  0.1090E+01
  0.1030E+01
  0.9745E+00
  0.9216E+00
  0.8715E+00
  0.8242E+00
  0.7795E+00
  0.7376E+00
  0.6984E+00
  0.6619E+00
  0.6282E+00
  0.5974E+00
  0.5705E+00
  0.5480E+00
  0.5347E+00
  0.5348E+00
  0.5425E+00
  0.5604E+00
  0.5900E+00
  0.6325E+00
  0.6741E+00
  0.6795E+00
  0.6577E+00
  0.6007E+00
  0.5443E+00
  0.5181E+00
  0.5194E+00
  0.5321E+00
  0.5534E+00
  0.5752E+00
  0.5664E+00
  0.4573E+00
  0.3078E+00
  0.2257E+00
  0.2018E+00
  0.1966E+01
  0.1966E+01
  0.1966E+01
  0.1966E+01
  0.1966E+01
  0.1966E+01
  0.1966E+01
  0.1966E+01
  0.1966E+01
  0.1966E+01
  0.1964E+01
  0.1958E+01
  0.1943E+01
  0.1911E+01
  0.1858E+01
  0.1787E+01
  0.1706E+01
  0.1621E+01
  0.1537E+01
  0.1455E+01
  0.1376E+01
  0.1300E+01
  0.1228E+01
  0.1160E+01
  0.1095E+01
  0.1035E+01
  0.9770E+00
  0.9228E+00
  0.8715E+00
  0.8230E+00
  0.7773E+00
  0.7342E+00
  0.6938E+00
  0.6561E+00
  0.6211E+00
  0.5887E+00
  0.5591E+00
  0.5331E+00
  0.5105E+00
  0.4993E+00
  0.5003E+00
  0.5099E+00
  0.5355E+00
  0.5811E+00
  0.6371E+00
  0.6717E+00
  0.6694E+00
  0.6329E+00
  0.5728E+00
  0.5215E+00
  0.5077E+00
  0.5119E+00
  0.5283E+00
  0.5530E+00
  0.5695E+00
  0.5418E+00
  0.4054E+00
  0.2778E+00
  0.2151E+00
  0.2008E+00
  0.1871E+01
  0.1871E+01
  0.1871E+01
  0.1871E+01
  0.1871E+01
  0.1871E+01
  0.1871E+01
  0.1871E+01
  0.1871E+01
  0.1871E+01
  0.1870E+01
  0.1865E+01
  0.1851E+01
  0.1822E+01
  0.1773E+01
  0.1706E+01
  0.1628E+01
  0.1547E+01
  0.1466E+01
  0.1386E+01
  0.1310E+01
  0.1236E+01
  0.1167E+01
  0.1101E+01
  0.1038E+01
  0.9794E+00
  0.9240E+00
  0.8717E+00
  0.8224E+00
  0.7758E+00
  0.7318E+00
  0.6906E+00
  0.6519E+00
  0.6158E+00
  0.5823E+00
  0.5513E+00
  0.5227E+00
  0.4977E+00
  0.4747E+00
  0.4680E+00
  0.4703E+00
  0.4860E+00
  0.5304E+00
  0.5898E+00
  0.6493E+00
  0.6656E+00
  0.6537E+00
  0.6042E+00
  0.5444E+00
  0.5032E+00
  0.4992E+00
  0.5069E+00
  0.5274E+00
  0.5537E+00
  0.5591E+00
  0.5002E+00
  0.3556E+00
  0.2520E+00
  0.2077E+00
  0.2003E+00
  0.1776E+01
  0.1776E+01
  0.1776E+01
  0.1776E+01
  0.1776E+01
  0.1776E+01
  0.1776E+01
  0.1776E+01
  0.1776E+01
  0.1775E+01
  0.1774E+01
  0.1770E+01
  0.1758E+01
  0.1732E+01
  0.1687E+01
  0.1624E+01
  0.1551E+01
  0.1473E+01
  0.1394E+01
  0.1318E+01
  0.1244E+01
  0.1173E+01
  0.1106E+01
  0.1043E+01
  0.9826E+00
  0.9261E+00
  0.8728E+00
  0.8226E+00
  0.7753E+00
  0.7306E+00
  0.6886E+00
  0.6491E+00
  0.6121E+00
  0.5776E+00
  0.5456E+00
  0.5160E+00
  0.4885E+00
  0.4639E+00
  0.4429E+00
  0.4404E+00
  0.4479E+00
  0.4827E+00
  0.5413E+00
  0.6091E+00
  0.6552E+00
  0.6568E+00
  0.6303E+00
  0.5733E+00
  0.5163E+00
  0.4909E+00
  0.4925E+00
  0.5058E+00
  0.5295E+00
  0.5519E+00
  0.5422E+00
  0.4437E+00
  0.3108E+00
  0.2312E+00
  0.2034E+00
  0.2001E+00
  0.1682E+01
  0.1682E+01
  0.1682E+01
  0.1682E+01
  0.1682E+01
  0.1682E+01
  0.1682E+01
  0.1682E+01
  0.1682E+01
  0.1682E+01
  0.1681E+01
  0.1677E+01
  0.1667E+01
  0.1644E+01
  0.1603E+01
  0.1545E+01
  0.1475E+01
  0.1400E+01
  0.1325E+01
  0.1252E+01
  0.1181E+01
  0.1113E+01
  0.1048E+01
  0.9871E+00
  0.9295E+00
  0.8752E+00
  0.8241E+00
  0.7760E+00
  0.7307E+00
  0.6879E+00
  0.6477E+00
  0.6100E+00
  0.5747E+00
  0.5417E+00
  0.5112E+00
  0.4826E+00
  0.4564E+00
  0.4308E+00
  0.4173E+00
  0.4199E+00
  0.4441E+00
  0.4972E+00
  0.5662E+00
  0.6324E+00
  0.6529E+00
  0.6443E+00
  0.6006E+00
  0.5397E+00
  0.4919E+00
  0.4836E+00
  0.4892E+00
  0.5078E+00
  0.5333E+00
  0.5456E+00
  0.5079E+00
  0.3823E+00
  0.2735E+00
  0.2163E+00
  0.2012E+00
  0.2000E+00
  0.1592E+01
  0.1592E+01
  0.1592E+01
  0.1592E+01
  0.1592E+01
  0.1592E+01
  0.1592E+01
  0.1592E+01
  0.1592E+01
  0.1592E+01
  0.1591E+01
  0.1588E+01
  0.1580E+01
  0.1560E+01
  0.1523E+01
  0.1468E+01
  0.1402E+01
  0.1331E+01
  0.1259E+01
  0.1189E+01
  0.1120E+01
  0.1055E+01
  0.9931E+00
  0.9344E+00
  0.8791E+00
  0.8271E+00
  0.7781E+00
  0.7320E+00
  0.6886E+00
  0.6477E+00
  0.6093E+00
  0.5732E+00
  0.5394E+00
  0.5081E+00
  0.4787E+00
  0.4512E+00
  0.4251E+00
  0.4021E+00
  0.4002E+00
  0.4162E+00
  0.4606E+00
  0.5258E+00
  0.5976E+00
  0.6447E+00
  0.6465E+00
  0.6214E+00
  0.5639E+00
  0.5050E+00
  0.4780E+00
  0.4790E+00
  0.4903E+00
  0.5134E+00
  0.5349E+00
  0.5294E+00
  0.4507E+00
  0.3277E+00
  0.2440E+00
  0.2072E+00
  0.2004E+00
  0.2000E+00
  0.1507E+01
  0.1507E+01
  0.1507E+01
  0.1507E+01
  0.1507E+01
  0.1507E+01
  0.1507E+01
  0.1507E+01
  0.1507E+01
  0.1507E+01
  0.1506E+01
  0.1504E+01
  0.1497E+01
  0.1479E+01
  0.1446E+01
  0.1396E+01
  0.1333E+01
  0.1266E+01
  0.1197E+01
  0.1129E+01
  0.1064E+01
  0.1001E+01
  0.9411E+00
  0.8848E+00
  0.8317E+00
  0.7817E+00
  0.7348E+00
  0.6906E+00
  0.6491E+00
  0.6099E+00
  0.5732E+00
  0.5387E+00
  0.5065E+00
  0.4765E+00
  0.4481E+00
  0.4214E+00
  0.3942E+00
  0.3873E+00
  0.3971E+00
  0.4340E+00
  0.4933E+00
  0.5635E+00
  0.6267E+00
  0.6429E+00
  0.6315E+00
  0.5829E+00
  0.5207E+00
  0.4779E+00
  0.4724E+00
  0.4780E+00
  0.4962E+00
  0.5197E+00
  0.5288E+00
  0.4943E+00
  0.3843E+00
  0.2827E+00
  0.2228E+00
  0.2026E+00
  0.2001E+00
  0.2000E+00
  0.1427E+01
  0.1427E+01
  0.1427E+01
  0.1427E+01
  0.1427E+01
  0.1427E+01
  0.1427E+01
  0.1427E+01
  0.1427E+01
  0.1426E+01
  0.1426E+01
  0.1424E+01
  0.1418E+01
  0.1403E+01
  0.1373E+01
  0.1327E+01
  0.1268E+01
  0.1204E+01
  0.1138E+01
  0.1073E+01
  0.1010E+01
  0.9496E+00
  0.8923E+00
  0.8382E+00
  0.7872E+00
  0.7393E+00
  0.6942E+00
  0.6519E+00
  0.6121E+00
  0.5746E+00
  0.5394E+00
  0.5065E+00
  0.4757E+00
  0.4466E+00
  0.4194E+00
  0.3901E+00
  0.3793E+00
  0.3858E+00
  0.4150E+00
  0.4669E+00
  0.5336E+00
  0.6032E+00
  0.6356E+00
  0.6312E+00
  0.5942E+00
  0.5327E+00
  0.4817E+00
  0.4673E+00
  0.4703E+00
  0.4833E+00
  0.5052E+00
  0.5203E+00
  0.5097E+00
  0.4332E+00
  0.3257E+00
  0.2481E+00
  0.2099E+00
  0.2008E+00
  0.2000E+00
  0.2000E+00
  0.1351E+01
  0.1351E+01
  0.1351E+01
  0.1351E+01
  0.1351E+01
  0.1351E+01
  0.1351E+01
  0.1351E+01
  0.1351E+01
  0.1351E+01
  0.1351E+01
  0.1349E+01
  0.1344E+01
  0.1331E+01
  0.1305E+01
  0.1262E+01
  0.1207E+01
  0.1146E+01
  0.1083E+01
  0.1020E+01
  0.9600E+00
  0.9019E+00
  0.8468E+00
  0.7947E+00
  0.7457E+00
  0.6997E+00
  0.6564E+00
  0.6158E+00
  0.5776E+00
  0.5417E+00
  0.5080E+00
  0.4765E+00
  0.4466E+00
  0.4188E+00
  0.3888E+00
  0.3759E+00
  0.3800E+00
  0.4033E+00
  0.4487E+00
  0.5075E+00
  0.5760E+00
  0.6253E+00
  0.6277E+00
  0.5990E+00
  0.5388E+00
  0.4854E+00
  0.4638E+00
  0.4652E+00
  0.4741E+00
  0.4929E+00
  0.5103E+00
  0.5101E+00
  0.4653E+00
  0.3659E+00
  0.2784E+00
  0.2239E+00
  0.2035E+00
  0.2002E+00
  0.2000E+00
  0.2000E+00
  0.1281E+01
  0.1281E+01
  0.1281E+01
  0.1281E+01
  0.1281E+01
  0.1281E+01
  0.1281E+01
  0.1281E+01
  0.1281E+01
  0.1281E+01
  0.1280E+01
  0.1279E+01
  0.1275E+01
  0.1264E+01
  0.1240E+01
  0.1202E+01
  0.1150E+01
  0.1092E+01
  0.1032E+01
  0.9717E+00
  0.9135E+00
  0.8576E+00
  0.8045E+00
  0.7544E+00
  0.7072E+00
  0.6629E+00
  0.6213E+00
  0.5822E+00
  0.5456E+00
  0.5111E+00
  0.4787E+00
  0.4481E+00
  0.4194E+00
  0.3889E+00
  0.3751E+00
  0.3779E+00
  0.3968E+00
  0.4374E+00
  0.4918E+00
  0.5559E+00
  0.6103E+00
  0.6209E+00
  0.5999E+00
  0.5425E+00
  0.4873E+00
  0.4624E+00
  0.4626E+00
  0.4686E+00
  0.4843E+00
  0.5012E+00
  0.5064E+00
  0.4810E+00
  0.3982E+00
  0.3085E+00
  0.2431E+00
  0.2098E+00
  0.2010E+00
  0.2000E+00
  0.2000E+00
  0.2000E+00
  0.1216E+01
  0.1216E+01
  0.1216E+01
  0.1216E+01
  0.1216E+01
  0.1216E+01
  0.1216E+01
  0.1216E+01
  0.1216E+01
  0.1216E+01
  0.1215E+01
  0.1214E+01
  0.1211E+01
  0.1201E+01
  0.1181E+01
  0.1146E+01
  0.1098E+01
  0.1042E+01
  0.9845E+00
  0.9268E+00
  0.8706E+00
  0.8167E+00
  0.7655E+00
  0.7171E+00
  0.6716E+00
  0.6289E+00
  0.5888E+00
  0.5513E+00
  0.5159E+00
  0.4825E+00
  0.4512E+00
  0.4214E+00
  0.3898E+00
  0.3758E+00
  0.3780E+00
  0.3926E+00
  0.4277E+00
  0.4787E+00
  0.5408E+00
  0.6035E+00
  0.6170E+00
  0.6012E+00
  0.5466E+00
  0.4902E+00
  0.4630E+00
  0.4618E+00
  0.4659E+00
  0.4793E+00
  0.4943E+00
  0.5009E+00
  0.4864E+00
  0.4212E+00
  0.3346E+00
  0.2637E+00
  0.2198E+00
  0.2031E+00
  0.2002E+00
  0.2000E+00
  0.2000E+00
  0.2000E+00
  0.1156E+01
  0.1156E+01
  0.1156E+01
  0.1156E+01
  0.1156E+01
  0.1156E+01
  0.1156E+01
  0.1156E+01
  0.1156E+01
  0.1156E+01
  0.1156E+01
  0.1155E+01
  0.1152E+01
  0.1144E+01
  0.1126E+01
  0.1094E+01
  0.1050E+01
  0.9971E+00
  0.9415E+00
  0.8859E+00
  0.8316E+00
  0.7795E+00
  0.7300E+00
  0.6832E+00
  0.6392E+00
  0.5979E+00
  0.5591E+00
  0.5227E+00
  0.4885E+00
  0.4564E+00
  0.4251E+00
  0.3940E+00
  0.3799E+00
  0.3807E+00
  0.3964E+00
  0.4280E+00
  0.4686E+00
  0.5246E+00
  0.5886E+00
  0.6153E+00
  0.6063E+00
  0.5563E+00
  0.4969E+00
  0.4660E+00
  0.4627E+00
  0.4655E+00
  0.4764E+00
  0.4899E+00
  0.4964E+00
  0.4877E+00
  0.4356E+00
  0.3548E+00
  0.2825E+00
  0.2320E+00
  0.2073E+00
  0.2008E+00
  0.2000E+00
  0.2000E+00
  0.2000E+00
  0.2000E+00
  0.1103E+01
  0.1103E+01
  0.1103E+01
  0.1103E+01
  0.1103E+01
  0.1103E+01
  0.1103E+01
  0.1103E+01
  0.1103E+01
  0.1103E+01
  0.1103E+01
  0.1103E+01
  0.1100E+01
  0.1094E+01
  0.1078E+01
  0.1049E+01
  0.1008E+01
  0.9575E+00
  0.9042E+00
  0.8505E+00
  0.7981E+00
  0.7475E+00
  0.6993E+00
  0.6538E+00
  0.6110E+00
  0.5708E+00
  0.5331E+00
  0.4976E+00
  0.4639E+00
  0.4307E+00
  0.4022E+00
  0.3869E+00
  0.3867E+00
  0.4025E+00
  0.4374E+00
  0.4789E+00
  0.5252E+00
  0.5781E+00
  0.6086E+00
  0.6054E+00
  0.5641E+00
  0.5055E+00
  0.4717E+00
  0.4657E+00
  0.4672E+00
  0.4749E+00
  0.4866E+00
  0.4934E+00
  0.4880E+00
  0.4447E+00
  0.3694E+00
  0.2979E+00
  0.2441E+00
  0.2130E+00
  0.2020E+00
  0.2002E+00
  0.2000E+00
  0.2000E+00
  0.2000E+00
  0.2000E+00
  0.1061E+01
  0.1061E+01
  0.1061E+01
  0.1061E+01
  0.1061E+01
  0.1061E+01
  0.1061E+01
  0.1061E+01
  0.1061E+01
  0.1061E+01
  0.1061E+01
  0.1060E+01
  0.1058E+01
  0.1053E+01
  0.1039E+01
  0.1012E+01
  0.9733E+00
  0.9256E+00
  0.8741E+00
  0.8221E+00
  0.7712E+00
  0.7221E+00
  0.6751E+00
  0.6304E+00
  0.5882E+00
  0.5483E+00
  0.5104E+00
  0.4747E+00
  0.4429E+00
  0.4174E+00
  0.3995E+00
  0.3982E+00
  0.4139E+00
  0.4487E+00
  0.4915E+00
  0.5405E+00
  0.5895E+00
  0.6096E+00
  0.6046E+00
  0.5678E+00
  0.5112E+00
  0.4762E+00
  0.4698E+00
  0.4704E+00
  0.4754E+00
  0.4848E+00
  0.4912E+00
  0.4872E+00
  0.4500E+00
  0.3797E+00
  0.3097E+00
  0.2546E+00
  0.2194E+00
  0.2041E+00
  0.2004E+00
  0.2000E+00
  0.2000E+00
  0.2000E+00
  0.2000E+00
  0.2000E+00
  0.1032E+01
  0.1032E+01
  0.1032E+01
  0.1032E+01
  0.1032E+01
  0.1032E+01
  0.1032E+01
  0.1032E+01
  0.1032E+01
  0.1032E+01
  0.1032E+01
  0.1032E+01
  0.1030E+01
  0.1026E+01
  0.1014E+01
  0.9908E+00
  0.9550E+00
  0.9095E+00
  0.8593E+00
  0.8077E+00
  0.7569E+00
  0.7076E+00
  0.6605E+00
  0.6158E+00
  0.5738E+00
  0.5348E+00
  0.4994E+00
  0.4680E+00
  0.4402E+00
  0.4195E+00
  0.4175E+00
  0.4330E+00
  0.4672E+00
  0.5076E+00
  0.5556E+00
  0.6019E+00
  0.6157E+00
  0.6061E+00
  0.5684E+00
  0.5145E+00
  0.4782E+00
  0.4719E+00
  0.4723E+00
  0.4765E+00
  0.4846E+00
  0.4904E+00
  0.4867E+00
  0.4521E+00
  0.3856E+00
  0.3180E+00
  0.2629E+00
  0.2254E+00
  0.2066E+00
  0.2009E+00
  0.2001E+00
  0.2000E+00
  0.2000E+00
  0.2000E+00
  0.2000E+00
  0.2000E+00
  0.1029E+01
  0.1029E+01
  0.1029E+01
  0.1029E+01
  0.1029E+01
  0.1029E+01
  0.1029E+01
  0.1029E+01
  0.1029E+01
  0.1029E+01
  0.1029E+01
  0.1028E+01
  0.1027E+01
  0.1023E+01
  0.1012E+01
  0.9900E+00
  0.9552E+00
  0.9104E+00
  0.8602E+00
  0.8085E+00
  0.7573E+00
  0.7075E+00
  0.6600E+00
  0.6152E+00
  0.5733E+00
  0.5349E+00
  0.5004E+00
  0.4703E+00
  0.4474E+00
  0.4451E+00
  0.4598E+00
  0.4934E+00
  0.5338E+00
  0.5761E+00
  0.6111E+00
  0.6160E+00
  0.6057E+00
  0.5642E+00
  0.5118E+00
  0.4783E+00
  0.4720E+00
  0.4724E+00
  0.4763E+00
  0.4843E+00
  0.4902E+00
  0.4868E+00
  0.4542E+00
  0.3893E+00
  0.3231E+00
  0.2690E+00
  0.2305E+00
  0.2092E+00
  0.2017E+00
  0.2002E+00
  0.2000E+00
  0.2000E+00
  0.2000E+00
  0.2000E+00
  0.2000E+00
  0.2000E+00
  0.1033E+01
  0.1033E+01
  0.1033E+01
  0.1033E+01
  0.1033E+01
  0.1033E+01
  0.1033E+01
  0.1033E+01
  0.1033E+01
  0.1033E+01
  0.1033E+01
  0.1033E+01
  0.1032E+01
  0.1029E+01
  0.1019E+01
  0.9989E+00
  0.9656E+00
  0.9213E+00
  0.8710E+00
  0.8187E+00
  0.7665E+00
  0.7158E+00
  0.6674E+00
  0.6221E+00
  0.5804E+00
  0.5426E+00
  0.5099E+00
  0.4859E+00
  0.4836E+00
  0.4965E+00
  0.5259E+00
  0.5631E+00
  0.6038E+00
  0.6251E+00
  0.6202E+00
  0.6015E+00
  0.5550E+00
  0.5052E+00
  0.4764E+00
  0.4720E+00
  0.4725E+00
  0.4759E+00
  0.4833E+00
  0.4894E+00
  0.4866E+00
  0.4553E+00
  0.3919E+00
  0.3268E+00
  0.2730E+00
  0.2344E+00
  0.2116E+00
  0.2025E+00
  0.2003E+00
  0.2000E+00
  0.2000E+00
  0.2000E+00
  0.2000E+00
  0.2000E+00
  0.2000E+00
  0.2000E+00
  0.1048E+01
  0.1048E+01
  0.1048E+01
  0.1048E+01
  0.1048E+01
  0.1048E+01
  0.1048E+01
  0.1048E+01
  0.1048E+01
  0.1048E+01
  0.1047E+01
  0.1047E+01
  0.1046E+01
  0.1043E+01
  0.1035E+01
  0.1016E+01
  0.9841E+00
  0.9399E+00
  0.8884E+00
  0.8346E+00
  0.7811E+00
  0.7294E+00
  0.6806E+00
  0.6354E+00
  0.5948E+00
  0.5604E+00
  0.5355E+00
  0.5305E+00
  0.5410E+00
  0.5662E+00
  0.5978E+00
  0.6265E+00
  0.6365E+00
  0.6279E+00
  0.5997E+00
  0.5465E+00
  0.4966E+00
  0.4713E+00
  0.4700E+00
  0.4722E+00
  0.4765E+00
  0.4834E+00
  0.4888E+00
  0.4858E+00
  0.4550E+00
  0.3923E+00
  0.3286E+00
  0.2758E+00
  0.2371E+00
  0.2135E+00
  0.2033E+00
  0.2005E+00
  0.2000E+00
  0.2000E+00
  0.2000E+00
  0.2000E+00
  0.2000E+00
  0.2000E+00
  0.2000E+00
  0.2000E+00
  0.1063E+01
  0.1063E+01
  0.1063E+01
  0.1063E+01
  0.1063E+01
  0.1063E+01
  0.1063E+01
  0.1063E+01
  0.1063E+01
  0.1063E+01
  0.1063E+01
  0.1063E+01
  0.1062E+01
  0.1059E+01
  0.1052E+01
  0.1034E+01
  0.1003E+01
  0.9582E+00
  0.9056E+00
  0.8502E+00
  0.7955E+00
  0.7435E+00
  0.6953E+00
  0.6523E+00
  0.6161E+00
  0.5902E+00
  0.5810E+00
  0.5895E+00
  0.6091E+00
  0.6328E+00
  0.6449E+00
  0.6419E+00
  0.6317E+00
  0.5989E+00
  0.5423E+00
  0.4901E+00
  0.4657E+00
  0.4657E+00
  0.4701E+00
  0.4765E+00
  0.4842E+00
  0.4894E+00
  0.4858E+00
  0.4543E+00
  0.3920E+00
  0.3288E+00
  0.2771E+00
  0.2390E+00
  0.2150E+00
  0.2039E+00
  0.2006E+00
  0.2001E+00
  0.2000E+00
  0.2000E+00
  0.2000E+00
  0.2000E+00
  0.2000E+00
  0.2000E+00
  0.2000E+00
  0.2000E+00
  0.1071E+01
  0.1071E+01
  0.1071E+01
  0.1071E+01
  0.1071E+01
  0.1071E+01
  0.1071E+01
  0.1071E+01
  0.1071E+01
  0.1071E+01
  0.1071E+01
  0.1071E+01
  0.1070E+01
  0.1068E+01
  0.1061E+01
  0.1044E+01
  0.1013E+01
  0.9692E+00
  0.9168E+00
  0.8614E+00
  0.8073E+00
  0.7570E+00
  0.7120E+00
  0.6745E+00
  0.6469E+00
  0.6326E+00
  0.6370E+00
  0.6491E+00
  0.6554E+00
  0.6526E+00
  0.6465E+00
  0.6314E+00
  0.5940E+00
  0.5394E+00
  0.4875E+00
  0.4629E+00
  0.4628E+00
  0.4672E+00
  0.4754E+00
  0.4845E+00
  0.4901E+00
  0.4865E+00
  0.4549E+00
  0.3920E+00
  0.3287E+00
  0.2773E+00
  0.2399E+00
  0.2160E+00
  0.2045E+00
  0.2008E+00
  0.2001E+00
  0.2000E+00
  0.2000E+00
  0.2000E+00
  0.2000E+00
  0.2000E+00
  0.2000E+00
  0.2000E+00
  0.2000E+00
  0.2000E+00
  0.1071E+01
  0.1071E+01
  0.1071E+01
  0.1071E+01
  0.1071E+01
  0.1071E+01
  0.1071E+01
  0.1071E+01
  0.1071E+01
  0.1071E+01
  0.1071E+01
  0.1071E+01
  0.1070E+01
  0.1068E+01
  0.1060E+01
  0.1044E+01
  0.1014E+01
  0.9699E+00
  0.9181E+00
  0.8649E+00
  0.8144E+00
  0.7690E+00
  0.7304E+00
  0.7011E+00
  0.6822E+00
  0.6743E+00
  0.6719E+00
  0.6651E+00
  0.6569E+00
  0.6442E+00
  0.6211E+00
  0.5830E+00
  0.5327E+00
  0.4852E+00
  0.4627E+00
  0.4619E+00
  0.4655E+00
  0.4752E+00
  0.4849E+00
  0.4903E+00
  0.4867E+00
  0.4552E+00
  0.3922E+00
  0.3288E+00
  0.2773E+00
  0.2400E+00
  0.2165E+00
  0.2049E+00
  0.2009E+00
  0.2001E+00
  0.2000E+00
  0.2000E+00
  0.2000E+00
  0.2000E+00
  0.2000E+00
  0.2000E+00
  0.2000E+00
  0.2000E+00
  0.2000E+00
  0.2000E+00
  0.1062E+01
  0.1062E+01
  0.1062E+01
  0.1062E+01
  0.1062E+01
  0.1062E+01
  0.1062E+01
  0.1062E+01
  0.1062E+01
  0.1062E+01
  0.1062E+01
  0.1062E+01
  0.1061E+01
  0.1058E+01
  0.1051E+01
  0.1034E+01
  0.1004E+01
  0.9617E+00
  0.9123E+00
  0.8614E+00
  0.8133E+00
  0.7707E+00
  0.7368E+00
  0.7108E+00
  0.6920E+00
  0.6798E+00
  0.6694E+00
  0.6536E+00
  0.6300E+00
  0.6004E+00
  0.5639E+00
  0.5209E+00
  0.4818E+00
  0.4640E+00
  0.4626E+00
  0.4660E+00
  0.4764E+00
  0.4866E+00
  0.4915E+00
  0.4867E+00
  0.4542E+00
  0.3919E+00
  0.3286E+00
  0.2771E+00
  0.2399E+00
  0.2165E+00
  0.2050E+00
  0.2010E+00
  0.2001E+00
  0.2000E+00
  0.2000E+00
  0.2000E+00
  0.2000E+00
  0.2000E+00
  0.2000E+00
  0.2000E+00
  0.2000E+00
  0.2000E+00
  0.2000E+00
  0.2000E+00
  0.1015E+01
  0.1015E+01
  0.1015E+01
  0.1015E+01
  0.1015E+01
  0.1015E+01
  0.1015E+01
  0.1015E+01
  0.1015E+01
  0.1015E+01
  0.1015E+01
  0.1014E+01
  0.1013E+01
  0.1010E+01
  0.1002E+01
  0.9849E+00
  0.9564E+00
  0.9180E+00
  0.8748E+00
  0.8321E+00
  0.7928E+00
  0.7578E+00
  0.7271E+00
  0.7011E+00
  0.6788E+00
  0.6578E+00
  0.6330E+00
  0.6043E+00
  0.5733E+00
  0.5394E+00
  0.5049E+00
  0.4778E+00
  0.4674E+00
  0.4652E+00
  0.4687E+00
  0.4792E+00
  0.4897E+00
  0.4938E+00
  0.4875E+00
  0.4522E+00
  0.3892E+00
  0.3268E+00
  0.2758E+00
  0.2390E+00
  0.2160E+00
  0.2049E+00
  0.2010E+00
  0.2002E+00
  0.2000E+00
  0.2000E+00
  0.2000E+00
  0.2000E+00
  0.2000E+00
  0.2000E+00
  0.2000E+00
  0.2000E+00
  0.2000E+00
  0.2000E+00
  0.2000E+00
  0.2000E+00
  0.9225E+00
  0.9225E+00
  0.9225E+00
  0.9225E+00
  0.9225E+00
  0.9225E+00
  0.9225E+00
  0.9225E+00
  0.9225E+00
  0.9225E+00
  0.9224E+00
  0.9220E+00
  0.9207E+00
  0.9171E+00
  0.9085E+00
  0.8922E+00
  0.8670E+00
  0.8351E+00
  0.8005E+00
  0.7667E+00
  0.7353E+00
  0.7065E+00
  0.6798E+00
  0.6536E+00
  0.6276E+00
  0.6009E+00
  0.5730E+00
  0.5444E+00
  0.5162E+00
  0.4918E+00
  0.4777E+00
  0.4724E+00
  0.4702E+00
  0.4743E+00
  0.4845E+00
  0.4943E+00
  0.4966E+00
  0.4885E+00
  0.4503E+00
  0.3858E+00
  0.3231E+00
  0.2730E+00
  0.2371E+00
  0.2150E+00
  0.2044E+00
  0.2009E+00
  0.2001E+00
  0.2000E+00
  0.2000E+00
  0.2000E+00
  0.2000E+00
  0.2000E+00
  0.2000E+00
  0.2000E+00
  0.2000E+00
  0.2000E+00
  0.2000E+00
  0.2000E+00
  0.2000E+00
  0.2000E+00
  0.8194E+00
  0.8194E+00
  0.8194E+00
  0.8194E+00
  0.8194E+00
  0.8194E+00
  0.8194E+00
  0.8194E+00
  0.8194E+00
  0.8194E+00
  0.8193E+00
  0.8188E+00
  0.8172E+00
  0.8132E+00
  0.8044E+00
  0.7891E+00
  0.7679E+00
  0.7432E+00
  0.7176E+00
  0.6920E+00
  0.6668E+00
  0.6426E+00
  0.6187E+00
  0.5941E+00
  0.5694E+00
  0.5446E+00
  0.5215E+00
  0.5033E+00
  0.4909E+00
  0.4836E+00
  0.4787E+00
  0.4780E+00
  0.4829E+00
  0.4932E+00
  0.5012E+00
  0.5004E+00
  0.4882E+00
  0.4448E+00
  0.3800E+00
  0.3180E+00
  0.2690E+00
  0.2343E+00
  0.2135E+00
  0.2039E+00
  0.2008E+00
  0.2001E+00
  0.2000E+00
  0.2000E+00
  0.2000E+00
  0.2000E+00
  0.2000E+00
  0.2000E+00
  0.2000E+00
  0.2000E+00
  0.2000E+00
  0.2000E+00
  0.2000E+00
  0.2000E+00
  0.2000E+00
  0.2000E+00
  0.7351E+00
  0.7351E+00
  0.7351E+00
  0.7351E+00
  0.7351E+00
  0.7351E+00
  0.7351E+00
  0.7351E+00
  0.7351E+00
  0.7350E+00
  0.7349E+00
  0.7343E+00
  0.7326E+00
  0.7281E+00
  0.7193E+00
  0.7055E+00
  0.6878E+00
  0.6685E+00
  0.6489E+00
  0.6291E+00
  0.6089E+00
  0.5890E+00
  0.5689E+00
  0.5500E+00
  0.5329E+00
  0.5185E+00
  0.5079E+00
  0.4991E+00
  0.4924E+00
  0.4892E+00
  0.4903E+00
  0.4960E+00
  0.5048E+00
  0.5102E+00
  0.5055E+00
  0.4866E+00
  0.4352E+00
  0.3695E+00
  0.3096E+00
  0.2629E+00
  0.2305E+00
  0.2116E+00
  0.2032E+00
  0.2006E+00
  0.2001E+00
  0.2000E+00
  0.2000E+00
  0.2000E+00
  0.2000E+00
  0.2000E+00
  0.2000E+00
  0.2000E+00
  0.2000E+00
  0.2000E+00
  0.2000E+00
  0.2000E+00
  0.2000E+00
  0.2000E+00
  0.2000E+00
  0.2000E+00
  0.6889E+00
  0.6889E+00
  0.6889E+00
  0.6889E+00
  0.6889E+00
  0.6889E+00
  0.6889E+00
  0.6889E+00
  0.6889E+00
  0.6889E+00
  0.6887E+00
  0.6880E+00
  0.6861E+00
  0.6815E+00
  0.6730E+00
  0.6607E+00
  0.6462E+00
  0.6308E+00
  0.6153E+00
  0.5997E+00
  0.5846E+00
  0.5696E+00
  0.5556E+00
  0.5423E+00
  0.5302E+00
  0.5198E+00
  0.5120E+00
  0.5070E+00
  0.5057E+00
  0.5078E+00
  0.5134E+00
  0.5200E+00
  0.5200E+00
  0.5106E+00
  0.4808E+00
  0.4208E+00
  0.3547E+00
  0.2978E+00
  0.2546E+00
  0.2254E+00
  0.2092E+00
  0.2025E+00
  0.2005E+00
  0.2001E+00
  0.2000E+00
  0.2000E+00
  0.2000E+00
  0.2000E+00
  0.2000E+00
  0.2000E+00
  0.2000E+00
  0.2000E+00
  0.2000E+00
  0.2000E+00
  0.2000E+00
  0.2000E+00
  0.2000E+00
  0.2000E+00
  0.2000E+00
  0.2000E+00
  0.6799E+00
  0.6799E+00
  0.6799E+00
  0.6799E+00
  0.6799E+00
  0.6799E+00
  0.6799E+00
  0.6799E+00
  0.6799E+00
  0.6799E+00
  0.6797E+00
  0.6790E+00
  0.6770E+00
  0.6726E+00
  0.6648E+00
  0.6541E+00
  0.6415E+00
  0.6278E+00
  0.6134E+00
  0.5988E+00
  0.5846E+00
  0.5711E+00
  0.5585E+00
  0.5476E+00
  0.5389E+00
  0.5327E+00
  0.5284E+00
  0.5275E+00
  0.5293E+00
  0.5336E+00
  0.5350E+00
  0.5285E+00
  0.5098E+00
  0.4650E+00
  0.3984E+00
  0.3345E+00
  0.2825E+00
  0.2441E+00
  0.2194E+00
  0.2066E+00
  0.2016E+00
  0.2003E+00
  0.2000E+00
  0.2000E+00
  0.2000E+00
  0.2000E+00
  0.2000E+00
  0.2000E+00
  0.2000E+00
  0.2000E+00
  0.2000E+00
  0.2000E+00
  0.2000E+00
  0.2000E+00
  0.2000E+00
  0.2000E+00
  0.2000E+00
  0.2000E+00
  0.2000E+00
  0.2000E+00
  0.6794E+00
  0.6794E+00
  0.6794E+00
  0.6794E+00
  0.6794E+00
  0.6794E+00
  0.6794E+00
  0.6794E+00
  0.6794E+00
  0.6793E+00
  0.6791E+00
  0.6784E+00
  0.6765E+00
  0.6722E+00
  0.6646E+00
  0.6543E+00
  0.6423E+00
  0.6298E+00
  0.6172E+00
  0.6045E+00
  0.5923E+00
  0.5811E+00
  0.5714E+00
  0.5633E+00
  0.5576E+00
  0.5539E+00
  0.5533E+00
  0.5538E+00
  0.5520E+00
  0.5452E+00
  0.5300E+00
  0.4942E+00
  0.4329E+00
  0.3661E+00
  0.3085E+00
  0.2637E+00
  0.2320E+00
  0.2130E+00
  0.2041E+00
  0.2009E+00
  0.2002E+00
  0.2000E+00
  0.2000E+00
  0.2000E+00
  0.2000E+00
  0.2000E+00
  0.2000E+00
  0.2000E+00
  0.2000E+00
  0.2000E+00
  0.2000E+00
  0.2000E+00
  0.2000E+00
  0.2000E+00
  0.2000E+00
  0.2000E+00
  0.2000E+00
  0.2000E+00
  0.2000E+00
  0.2000E+00
  0.6810E+00
  0.6810E+00
  0.6810E+00
  0.6810E+00