# vtk DataFile Version 3.0
vtk output
ASCII
DATASET RECTILINEAR_GRID
DIMENSIONS          61          61 1
X_COORDINATES    61 double
  0.0000E+00
  0.1667E+00
  0.3333E+00
  0.5000E+00
  0.6667E+00
  0.8333E+00
  0.1000E+01
  0.1167E+01
  0.1333E+01
  0.1500E+01
  0.1667E+01
  0.1833E+01
  0.2000E+01
  0.2167E+01
  0.2333E+01
  0.2500E+01
  0.2667E+01
  0.2833E+01
  0.3000E+01
  0.3167E+01
  0.3333E+01
  0.3500E+01
  0.3667E+01
  0.3833E+01
  0.4000E+01
  0.4167E+01
  0.4333E+01
  0.4500E+01
  0.4667E+01
  0.4833E+01
  0.5000E+01
  0.5167E+01
  0.5333E+01
  0.5500E+01
  0.5667E+01
  0.5833E+01
  0.6000E+01
  0.6167E+01
  0.6333E+01
  0.6500E+01
  0.6667E+01
  0.6833E+01
  0.7000E+01
  0.7167E+01
  0.7333E+01
  0.7500E+01
  0.7667E+01
  0.7833E+01
  0.8000E+01
  0.8167E+01
  0.8333E+01
  0.8500E+01
  0.8667E+01
  0.8833E+01
  0.9000E+01
  0.9167E+01
  0.9333E+01
  0.9500E+01
  0.9667E+01
  0.9833E+01
  0.1000E+02
Y_COORDINATES    61 double
  0.0000E+00
  0.1667E+00
  0.3333E+00
  0.5000E+00
  0.6667E+00
  0.8333E+00
  0.1000E+01
  0.1167E+01
  0.1333E+01
  0.1500E+01
  0.1667E+01
  0.1833E+01
  0.2000E+01
  0.2167E+01
  0.2333E+01
  0.2500E+01
  0.2667E+01
  0.2833E+01
  0.3000E+01
  0.3167E+01
  0.3333E+01
  0.3500E+01
  0.3667E+01
  0.3833E+01
  0.4000E+01
  0.4167E+01
  0.4333E+01
  0.4500E+01
  0.4667E+01
  0.4833E+01
  0.5000E+01
  0.5167E+01
  0.5333E+01
  0.5500E+01
  0.5667E+01
  0.5833E+01
  0.6000E+01
  0.6167E+01
  0.6333E+01
  0.6500E+01
  0.6667E+01
  0.6833E+01
  0.7000E+01
  0.7167E+01
  0.7333E+01
  0.7500E+01
  0.7667E+01
  0.7833E+01
  0.8000E+01
  0.8167E+01
  0.8333E+01
  0.8500E+01
  0.8667E+01
  0.8833E+01
  0.9000E+01
  0.9167E+01
  0.9333E+01
  0.9500E+01
  0.9667E+01
  0.9833E+01
  0.1000E+02
Z_COORDINATES 1 double
0
CELL_DATA                 3600
FIELD FieldData 4
density 1                 3600 double
  0.3996E+01
  0.3996E+01
  0.3996E+01
  0.3996E+01
  0.3996E+01
  0.3996E+01
  0.3996E+01
  0.3996E+01
  0.3996E+01
  0.3996E+01
  0.3996E+01
  0.3996E+01
  0.3996E+01
  0.3996E+01
  0.3996E+01
  0.3996E+01
  0.3996E+01
  0.3996E+01
  0.3993E+01
  0.3979E+01
  0.3928E+01
  0.3800E+01
  0.3577E+01
  0.3289E+01
  0.2981E+01
  0.2683E+01
  0.2410E+01
  0.2166E+01
  0.1950E+01
  0.1754E+01
  0.1577E+01
  0.1423E+01
  0.1297E+01
  0.1203E+01
  0.1128E+01
  0.1071E+01
  0.1040E+01
  0.1002E+01
  0.9181E+00
  0.8029E+00
  0.7163E+00
  0.6913E+00
  0.6660E+00
  0.5439E+00
  0.3474E+00
  0.2336E+00
  0.2018E+00
  0.2000E+00
  0.2000E+00
  0.2000E+00
  0.2000E+00
  0.2000E+00
  0.2000E+00
  0.2000E+00
  0.2000E+00
  0.2000E+00
  0.2000E+00
  0.2000E+00
  0.2000E+00
  0.2000E+00
  0.3983E+01
  0.3983E+01
  0.3983E+01
  0.3983E+01
  0.3983E+01
  0.3983E+01
  0.3983E+01
  0.3983E+01
  0.3983E+01
  0.3983E+01
  0.3983E+01
  0.3983E+01
  0.3983E+01
  0.3983E+01
  0.3983E+01
  0.3983E+01
  0.3982E+01
  0.3982E+01
  0.3979E+01
  0.3965E+01
  0.3915E+01
  0.3788E+01
  0.3566E+01
  0.3280E+01
  0.2973E+01
  0.2676E+01
  0.2404E+01
  0.2162E+01
  0.1946E+01
  0.1751E+01
  0.1575E+01
  0.1422E+01
  0.1296E+01
  0.1202E+01
  0.1128E+01
  0.1071E+01
  0.1040E+01
  0.1002E+01
  0.9179E+00
  0.8025E+00
  0.7158E+00
  0.6908E+00
  0.6654E+00
  0.5434E+00
  0.3471E+00
  0.2335E+00
  0.2017E+00
  0.2000E+00
  0.2000E+00
  0.2000E+00
  0.2000E+00
  0.2000E+00
  0.2000E+00
  0.2000E+00
  0.2000E+00
  0.2000E+00
  0.2000E+00
  0.2000E+00
  0.2000E+00
  0.2000E+00
  0.3931E+01
  0.3931E+01
  0.3931E+01
  0.3931E+01
  0.3931E+01
  0.3931E+01
  0.3931E+01
  0.3931E+01
  0.3931E+01
  0.3931E+01
  0.3931E+01
  0.3931E+01
  0.3931E+01
  0.3931E+01
  0.3931E+01
  0.3931E+01
  0.3931E+01
  0.3931E+01
  0.3928E+01
  0.3915E+01
  0.3865E+01
  0.3741E+01
  0.3524E+01
  0.3243E+01
  0.2942E+01
  0.2650E+01
  0.2383E+01
  0.2145E+01
  0.1933E+01
  0.1741E+01
  0.1567E+01
  0.1416E+01
  0.1291E+01
  0.1198E+01
  0.1125E+01
  0.1069E+01
  0.1038E+01
  0.9999E+00
  0.9157E+00
  0.8000E+00
  0.7132E+00
  0.6880E+00
  0.6626E+00
  0.5410E+00
  0.3461E+00
  0.2332E+00
  0.2017E+00
  0.2000E+00
  0.2000E+00
  0.2000E+00
  0.2000E+00
  0.2000E+00
  0.2000E+00
  0.2000E+00
  0.2000E+00
  0.2000E+00
  0.2000E+00
  0.2000E+00
  0.2000E+00
  0.2000E+00
  0.3804E+01
  0.3804E+01
  0.3804E+01
  0.3804E+01
  0.3804E+01
  0.3804E+01
  0.3804E+01
  0.3804E+01
  0.3804E+01
  0.3804E+01
  0.3804E+01
  0.3804E+01
  0.3804E+01
  0.3804E+01
  0.3804E+01
  0.3804E+01
  0.3803E+01
  0.3803E+01
  0.3801E+01
  0.3788E+01
  0.3741E+01
  0.3624E+01
  0.3416E+01
  0.3146E+01
  0.2858E+01
  0.2577E+01
  0.2321E+01
  0.2093E+01
  0.1889E+01
  0.1705E+01
  0.1538E+01
  0.1392E+01
  0.1273E+01
  0.1184E+01
  0.1113E+01
  0.1059E+01
  0.1029E+01
  0.9913E+00
  0.9069E+00
  0.7911E+00
  0.7043E+00
  0.6794E+00
  0.6544E+00
  0.5344E+00
  0.3432E+00
  0.2325E+00
  0.2016E+00
  0.2000E+00
  0.2000E+00
  0.2000E+00
  0.2000E+00
  0.2000E+00
  0.2000E+00
  0.2000E+00
  0.2000E+00
  0.2000E+00
  0.2000E+00
  0.2000E+00
  0.2000E+00
  0.2000E+00
  0.3580E+01
  0.3580E+01
  0.3580E+01
  0.3580E+01
  0.3580E+01
  0.3580E+01
  0.3580E+01
  0.3580E+01
  0.3580E+01
  0.3580E+01
  0.3580E+01
  0.3580E+01
  0.3580E+01
  0.3580E+01
  0.3580E+01
  0.3580E+01
  0.3580E+01
  0.3580E+01
  0.3578E+01
  0.3566E+01
  0.3524E+01
  0.3416E+01
  0.3223E+01
  0.2971E+01
  0.2701E+01
  0.2439E+01
  0.2199E+01
  0.1987E+01
  0.1797E+01
  0.1626E+01
  0.1471E+01
  0.1336E+01
  0.1225E+01
  0.1144E+01
  0.1079E+01
  0.1029E+01
  0.1002E+01
  0.9650E+00
  0.8819E+00
  0.7681E+00
  0.6844E+00
  0.6618E+00
  0.6384E+00
  0.5222E+00
  0.3377E+00
  0.2309E+00
  0.2015E+00
  0.2000E+00
  0.2000E+00
  0.2000E+00
  0.2000E+00
  0.2000E+00
  0.2000E+00
  0.2000E+00
  0.2000E+00
  0.2000E+00
  0.2000E+00
  0.2000E+00
  0.2000E+00
  0.2000E+00
  0.3292E+01
  0.3292E+01
  0.3292E+01
  0.3292E+01
  0.3292E+01
  0.3292E+01
  0.3292E+01
  0.3292E+01
  0.3292E+01
  0.3292E+01
  0.3292E+01
  0.3292E+01
  0.3292E+01
  0.3292E+01
  0.3292E+01
  0.3292E+01
  0.3292E+01
  0.3291E+01
  0.3290E+01
  0.3280E+01
  0.3243E+01
  0.3146E+01
  0.2971E+01
  0.2739E+01
  0.2490E+01
  0.2248E+01
  0.2027E+01
  0.1832E+01
  0.1659E+01
  0.1502E+01
  0.1361E+01
  0.1239E+01
  0.1140E+01
  0.1068E+01
  0.1011E+01
  0.9669E+00
  0.9437E+00
  0.9105E+00
  0.8332E+00
  0.7282E+00
  0.6537E+00
  0.6370E+00
  0.6175E+00
  0.5053E+00
  0.3290E+00
  0.2281E+00
  0.2012E+00
  0.2000E+00
  0.2000E+00
  0.2000E+00
  0.2000E+00
  0.2000E+00
  0.2000E+00
  0.2000E+00
  0.2000E+00
  0.2000E+00
  0.2000E+00
  0.2000E+00
  0.2000E+00
  0.2000E+00
  0.2983E+01
  0.2983E+01
  0.2983E+01
  0.2983E+01
  0.2983E+01
  0.2983E+01
  0.2983E+01
  0.2983E+01
  0.2983E+01
  0.2983E+01
  0.2983E+01
  0.2983E+01
  0.2983E+01
  0.2983E+01
  0.2983E+01
  0.2983E+01
  0.2983E+01
  0.2983E+01
  0.2982E+01
  0.2973E+01
  0.2942E+01
  0.2857E+01
  0.2701E+01
  0.2490E+01
  0.2261E+01
  0.2038E+01
  0.1835E+01
  0.1656E+01
  0.1498E+01
  0.1356E+01
  0.1228E+01
  0.1118E+01
  0.1029E+01
  0.9654E+00
  0.9143E+00
  0.8759E+00
  0.8581E+00
  0.8317E+00
  0.7671E+00
  0.6783E+00
  0.6196E+00
  0.6112E+00
  0.5956E+00
  0.4833E+00
  0.3164E+00
  0.2240E+00
  0.2009E+00
  0.2000E+00
  0.2000E+00
  0.2000E+00
  0.2000E+00
  0.2000E+00
  0.2000E+00
  0.2000E+00
  0.2000E+00
  0.2000E+00
  0.2000E+00
  0.2000E+00
  0.2000E+00
  0.2000E+00
  0.2684E+01
  0.2684E+01
  0.2684E+01
  0.2684E+01
  0.2684E+01
  0.2684E+01
  0.2684E+01
  0.2684E+01
  0.2684E+01
  0.2684E+01
  0.2684E+01
  0.2684E+01
  0.2684E+01
  0.2684E+01
  0.2684E+01
  0.2684E+01
  0.2684E+01
  0.2684E+01
  0.2683E+01
  0.2676E+01
  0.2650E+01
  0.2577E+01
  0.2438E+01
  0.2248E+01
  0.2038E+01
  0.1833E+01
  0.1647E+01
  0.1482E+01
  0.1337E+01
  0.1207E+01
  0.1091E+01
  0.9916E+00
  0.9118E+00
  0.8542E+00
  0.8073E+00
  0.7735E+00
  0.7618E+00
  0.7464E+00
  0.6987E+00
  0.6285E+00
  0.5883E+00
  0.5873E+00
  0.5721E+00
  0.4549E+00
  0.3001E+00
  0.2189E+00
  0.2006E+00
  0.2000E+00
  0.2000E+00
  0.2000E+00
  0.2000E+00
  0.2000E+00
  0.2000E+00
  0.2000E+00
  0.2000E+00
  0.2000E+00
  0.2000E+00
  0.2000E+00
  0.2000E+00
  0.2000E+00
  0.2411E+01
  0.2411E+01
  0.2411E+01
  0.2411E+01
  0.2411E+01
  0.2411E+01
  0.2411E+01
  0.2411E+01
  0.2411E+01
  0.2411E+01
  0.2411E+01
  0.2411E+01
  0.2411E+01
  0.2411E+01
  0.2411E+01
  0.2411E+01
  0.2411E+01
  0.2411E+01
  0.2410E+01
  0.2404E+01
  0.2383E+01
  0.2321E+01
  0.2199E+01
  0.2027E+01
  0.1835E+01
  0.1647E+01
  0.1475E+01
  0.1323E+01
  0.1190E+01
  0.1070E+01
  0.9638E+00
  0.8729E+00
  0.8002E+00
  0.7472E+00
  0.7034E+00
  0.6744E+00
  0.6713E+00
  0.6687E+00
  0.6417E+00
  0.5860E+00
  0.5637E+00
  0.5664E+00
  0.5456E+00
  0.4192E+00
  0.2812E+00
  0.2133E+00
  0.2004E+00
  0.2000E+00
  0.2000E+00
  0.2000E+00
  0.2000E+00
  0.2000E+00
  0.2000E+00
  0.2000E+00
  0.2000E+00
  0.2000E+00
  0.2000E+00
  0.2000E+00
  0.2000E+00
  0.2000E+00
  0.2167E+01
  0.2167E+01
  0.2167E+01
  0.2167E+01
  0.2167E+01
  0.2167E+01
  0.2167E+01
  0.2167E+01
  0.2167E+01
  0.2167E+01
  0.2167E+01
  0.2167E+01
  0.2167E+01
  0.2167E+01
  0.2167E+01
  0.2167E+01
  0.2167E+01
  0.2167E+01
  0.2166E+01
  0.2162E+01
  0.2145E+01
  0.2093E+01
  0.1986E+01
  0.1831E+01
  0.1656E+01
  0.1482E+01
  0.1323E+01
  0.1183E+01
  0.1060E+01
  0.9500E+00
  0.8525E+00
  0.7694E+00
  0.7031E+00
  0.6541E+00
  0.6097E+00
  0.5962E+00
  0.6022E+00
  0.6144E+00
  0.5998E+00
  0.5525E+00
  0.5425E+00
  0.5459E+00
  0.5120E+00
  0.3786E+00
  0.2610E+00
  0.2082E+00
  0.2002E+00
  0.2000E+00
  0.2000E+00
  0.2000E+00
  0.2000E+00
  0.2000E+00
  0.2000E+00
  0.2000E+00
  0.2000E+00
  0.2000E+00
  0.2000E+00
  0.2000E+00
  0.2000E+00
  0.2000E+00
  0.1950E+01
  0.1950E+01
  0.1950E+01
  0.1950E+01
  0.1950E+01
  0.1950E+01
  0.1950E+01
  0.1950E+01
  0.1950E+01
  0.1950E+01
  0.1950E+01
  0.1950E+01
  0.1950E+01
  0.1950E+01
  0.1950E+01
  0.1950E+01
  0.1950E+01
  0.1950E+01
  0.1950E+01
  0.1946E+01
  0.1933E+01
  0.1889E+01
  0.1797E+01
  0.1658E+01
  0.1498E+01
  0.1337E+01
  0.1189E+01
  0.1060E+01
  0.9466E+00
  0.8448E+00
  0.7552E+00
  0.6784E+00
  0.6182E+00
  0.5715E+00
  0.5360E+00
  0.5341E+00
  0.5608E+00
  0.5843E+00
  0.5639E+00
  0.5252E+00
  0.5243E+00
  0.5245E+00
  0.4684E+00
  0.3374E+00
  0.2414E+00
  0.2043E+00
  0.2001E+00
  0.2000E+00
  0.2000E+00
  0.2000E+00
  0.2000E+00
  0.2000E+00
  0.2000E+00
  0.2000E+00
  0.2000E+00
  0.2000E+00
  0.2000E+00
  0.2000E+00
  0.2000E+00
  0.2000E+00
  0.1754E+01
  0.1754E+01
  0.1754E+01
  0.1754E+01
  0.1754E+01
  0.1754E+01
  0.1754E+01
  0.1754E+01
  0.1754E+01
  0.1754E+01
  0.1754E+01
  0.1754E+01
  0.1754E+01
  0.1754E+01
  0.1754E+01
  0.1754E+01
  0.1754E+01
  0.1754E+01
  0.1754E+01
  0.1751E+01
  0.1740E+01
  0.1705E+01
  0.1626E+01
  0.1502E+01
  0.1355E+01
  0.1207E+01
  0.1070E+01
  0.9499E+00
  0.8448E+00
  0.7509E+00
  0.6685E+00
  0.5980E+00
  0.5442E+00
  0.4980E+00
  0.4844E+00
  0.5034E+00
  0.5598E+00
  0.5650E+00
  0.5237E+00
  0.5025E+00
  0.5087E+00
  0.4989E+00
  0.4146E+00
  0.2977E+00
  0.2246E+00
  0.2019E+00
  0.2000E+00
  0.2000E+00
  0.2000E+00
  0.2000E+00
  0.2000E+00
  0.2000E+00
  0.2000E+00
  0.2000E+00
  0.2000E+00
  0.2000E+00
  0.2000E+00
  0.2000E+00
  0.2000E+00
  0.2000E+00
  0.1577E+01
  0.1577E+01
  0.1577E+01
  0.1577E+01
  0.1577E+01
  0.1577E+01
  0.1577E+01
  0.1577E+01
  0.1577E+01
  0.1577E+01
  0.1577E+01
  0.1577E+01
  0.1577E+01
  0.1577E+01
  0.1577E+01
  0.1577E+01
  0.1577E+01
  0.1577E+01
  0.1577E+01
  0.1575E+01
  0.1567E+01
  0.1538E+01
  0.1471E+01
  0.1361E+01
  0.1228E+01
  0.1091E+01
  0.9636E+00
  0.8525E+00
  0.7551E+00
  0.6685E+00
  0.5919E+00
  0.5300E+00
  0.4742E+00
  0.4551E+00
  0.4717E+00
  0.5259E+00
  0.5571E+00
  0.5314E+00
  0.4897E+00
  0.4895E+00
  0.4938E+00
  0.4590E+00
  0.3568E+00
  0.2628E+00
  0.2123E+00
  0.2007E+00
  0.2000E+00
  0.2000E+00
  0.2000E+00
  0.2000E+00
  0.2000E+00
  0.2000E+00
  0.2000E+00
  0.2000E+00
  0.2000E+00
  0.2000E+00
  0.2000E+00
  0.2000E+00
  0.2000E+00
  0.2000E+00
  0.1423E+01
  0.1423E+01
  0.1423E+01
  0.1423E+01
  0.1423E+01
  0.1423E+01
  0.1423E+01
  0.1423E+01
  0.1423E+01
  0.1423E+01
  0.1423E+01
  0.1423E+01
  0.1423E+01
  0.1423E+01
  0.1423E+01
  0.1423E+01
  0.1423E+01
  0.1423E+01
  0.1423E+01
  0.1422E+01
  0.1415E+01
  0.1392E+01
  0.1336E+01
  0.1239E+01
  0.1118E+01
  0.9913E+00
  0.8727E+00
  0.7693E+00
  0.6783E+00
  0.5979E+00
  0.5301E+00
  0.4657E+00
  0.4440E+00
  0.4533E+00
  0.4975E+00
  0.5452E+00
  0.5387E+00
  0.4917E+00
  0.4773E+00
  0.4819E+00
  0.4691E+00
  0.3997E+00
  0.3052E+00
  0.2352E+00
  0.2051E+00
  0.2002E+00
  0.2000E+00
  0.2000E+00
  0.2000E+00
  0.2000E+00
  0.2000E+00
  0.2000E+00
  0.2000E+00
  0.2000E+00
  0.2000E+00
  0.2000E+00
  0.2000E+00
  0.2000E+00
  0.2000E+00
  0.2000E+00
  0.1297E+01
  0.1297E+01
  0.1297E+01
  0.1297E+01
  0.1297E+01
  0.1297E+01
  0.1297E+01
  0.1297E+01
  0.1297E+01
  0.1297E+01
  0.1297E+01
  0.1297E+01
  0.1297E+01
  0.1297E+01
  0.1297E+01
  0.1297E+01
  0.1297E+01
  0.1297E+01
  0.1297E+01
  0.1296E+01
  0.1291E+01
  0.1273E+01
  0.1225E+01
  0.1140E+01
  0.1029E+01
  0.9115E+00
  0.8001E+00
  0.7030E+00
  0.6181E+00
  0.5441E+00
  0.4742E+00
  0.4434E+00
  0.4465E+00
  0.4746E+00
  0.5326E+00
  0.5411E+00
  0.5099E+00
  0.4770E+00
  0.4749E+00
  0.4677E+00
  0.4218E+00
  0.3390E+00
  0.2630E+00
  0.2164E+00
  0.2017E+00
  0.2001E+00
  0.2000E+00
  0.2000E+00
  0.2000E+00
  0.2000E+00
  0.2000E+00
  0.2000E+00
  0.2000E+00
  0.2000E+00
  0.2000E+00
  0.2000E+00
  0.2000E+00
  0.2000E+00
  0.2000E+00
  0.2000E+00
  0.1203E+01
  0.1203E+01
  0.1203E+01
  0.1203E+01
  0.1203E+01
  0.1203E+01
  0.1203E+01
  0.1203E+01
  0.1203E+01
  0.1203E+01
  0.1203E+01
  0.1203E+01
  0.1203E+01
  0.1203E+01
  0.1203E+01
  0.1203E+01
  0.1203E+01
  0.1203E+01
  0.1203E+01
  0.1202E+01
  0.1198E+01
  0.1184E+01
  0.1144E+01
  0.1068E+01
  0.9652E+00
  0.8540E+00
  0.7470E+00
  0.6540E+00
  0.5714E+00
  0.4973E+00
  0.4553E+00
  0.4539E+00
  0.4732E+00
  0.5199E+00
  0.5413E+00
  0.5233E+00
  0.4853E+00
  0.4733E+00
  0.4656E+00
  0.4304E+00
  0.3609E+00
  0.2872E+00
  0.2323E+00
  0.2061E+00
  0.2004E+00
  0.2000E+00
  0.2000E+00
  0.2000E+00
  0.2000E+00
  0.2000E+00
  0.2000E+00
  0.2000E+00
  0.2000E+00
  0.2000E+00
  0.2000E+00
  0.2000E+00
  0.2000E+00
  0.2000E+00
  0.2000E+00
  0.2000E+00
  0.1128E+01
  0.1128E+01
  0.1128E+01
  0.1128E+01
  0.1128E+01
  0.1128E+01
  0.1128E+01
  0.1128E+01
  0.1128E+01
  0.1128E+01
  0.1128E+01
  0.1128E+01
  0.1128E+01
  0.1128E+01
  0.1128E+01
  0.1128E+01
  0.1128E+01
  0.1128E+01
  0.1128E+01
  0.1128E+01
  0.1125E+01
  0.1113E+01
  0.1079E+01
  0.1011E+01
  0.9141E+00
  0.8071E+00
  0.7032E+00
  0.6092E+00
  0.5361E+00
  0.4860E+00
  0.4710E+00
  0.4969E+00
  0.5326E+00
  0.5427E+00
  0.5303E+00
  0.4955E+00
  0.4733E+00
  0.4628E+00
  0.4316E+00
  0.3716E+00
  0.3041E+00
  0.2476E+00
  0.2134E+00
  0.2017E+00
  0.2001E+00
  0.2000E+00
  0.2000E+00
  0.2000E+00
  0.2000E+00
  0.2000E+00
  0.2000E+00
  0.2000E+00
  0.2000E+00
  0.2000E+00
  0.2000E+00
  0.2000E+00
  0.2000E+00
  0.2000E+00
  0.2000E+00
  0.2000E+00
  0.1071E+01
  0.1071E+01
  0.1071E+01
  0.1071E+01
  0.1071E+01
  0.1071E+01
  0.1071E+01
  0.1071E+01
  0.1071E+01
  0.1071E+01
  0.1071E+01
  0.1071E+01
  0.1071E+01
  0.1071E+01
  0.1071E+01
  0.1071E+01
  0.1071E+01
  0.1071E+01
  0.1071E+01
  0.1071E+01
  0.1069E+01
  0.1059E+01
  0.1029E+01
  0.9668E+00
  0.8758E+00
  0.7734E+00
  0.6745E+00
  0.5966E+00
  0.5343E+00
  0.5036E+00
  0.5260E+00
  0.5452E+00
  0.5410E+00
  0.5238E+00
  0.4959E+00
  0.4769E+00
  0.4621E+00
  0.4302E+00
  0.3743E+00
  0.3130E+00
  0.2594E+00
  0.2215E+00
  0.2043E+00
  0.2004E+00
  0.2000E+00
  0.2000E+00
  0.2000E+00
  0.2000E+00
  0.2000E+00
  0.2000E+00
  0.2000E+00
  0.2000E+00
  0.2000E+00
  0.2000E+00
  0.2000E+00
  0.2000E+00
  0.2000E+00
  0.2000E+00
  0.2000E+00
  0.2000E+00
  0.1040E+01
  0.1040E+01
  0.1040E+01
  0.1040E+01
  0.1040E+01
  0.1040E+01
  0.1040E+01
  0.1040E+01
  0.1040E+01
  0.1040E+01
  0.1040E+01
  0.1040E+01
  0.1040E+01
  0.1040E+01
  0.1040E+01
  0.1040E+01
  0.1040E+01
  0.1040E+01
  0.1040E+01
  0.1040E+01
  0.1038E+01
  0.1029E+01
  0.1002E+01
  0.9437E+00
  0.8581E+00
  0.7618E+00
  0.6712E+00
  0.6024E+00
  0.5607E+00
  0.5599E+00
  0.5559E+00
  0.5380E+00
  0.5073E+00
  0.4844E+00
  0.4732E+00
  0.4623E+00
  0.4308E+00
  0.3748E+00
  0.3155E+00
  0.2659E+00
  0.2286E+00
  0.2076E+00
  0.2010E+00
  0.2001E+00
  0.2000E+00
  0.2000E+00
  0.2000E+00
  0.2000E+00
  0.2000E+00
  0.2000E+00
  0.2000E+00
  0.2000E+00
  0.2000E+00
  0.2000E+00
  0.2000E+00
  0.2000E+00
  0.2000E+00
  0.2000E+00
  0.2000E+00
  0.2000E+00
  0.1002E+01
  0.1002E+01
  0.1002E+01
  0.1002E+01
  0.1002E+01
  0.1002E+01
  0.1002E+01
  0.1002E+01
  0.1002E+01
  0.1002E+01
  0.1002E+01
  0.1002E+01
  0.1002E+01
  0.1002E+01
  0.1002E+01
  0.1002E+01
  0.1002E+01
  0.1002E+01
  0.1002E+01
  0.1002E+01
  0.9999E+00
  0.9913E+00
  0.9649E+00
  0.9104E+00
  0.8316E+00
  0.7464E+00
  0.6683E+00
  0.6141E+00
  0.5843E+00
  0.5660E+00
  0.5323E+00
  0.4914E+00
  0.4761E+00
  0.4735E+00
  0.4628E+00
  0.4302E+00
  0.3750E+00
  0.3153E+00
  0.2673E+00
  0.2329E+00
  0.2108E+00
  0.2020E+00
  0.2002E+00
  0.2000E+00
  0.2000E+00
  0.2000E+00
  0.2000E+00
  0.2000E+00
  0.2000E+00
  0.2000E+00
  0.2000E+00
  0.2000E+00
  0.2000E+00
  0.2000E+00
  0.2000E+00
  0.2000E+00
  0.2000E+00
  0.2000E+00
  0.2000E+00
  0.2000E+00
  0.9182E+00
  0.9182E+00
  0.9182E+00
  0.9182E+00
  0.9182E+00
  0.9182E+00
  0.9182E+00
  0.9182E+00
  0.9182E+00
  0.9182E+00
  0.9182E+00
  0.9182E+00
  0.9182E+00
  0.9182E+00
  0.9182E+00
  0.9182E+00
  0.9182E+00
  0.9182E+00
  0.9181E+00
  0.9179E+00
  0.9156E+00
  0.9069E+00
  0.8818E+00
  0.8330E+00
  0.7668E+00
  0.6984E+00
  0.6417E+00
  0.5996E+00
  0.5641E+00
  0.5230E+00
  0.4902E+00
  0.4771E+00
  0.4745E+00
  0.4657E+00
  0.4312E+00
  0.3741E+00
  0.3156E+00
  0.2674E+00
  0.2336E+00
  0.2127E+00
  0.2031E+00
  0.2004E+00
  0.2000E+00
  0.2000E+00
  0.2000E+00
  0.2000E+00
  0.2000E+00
  0.2000E+00
  0.2000E+00
  0.2000E+00
  0.2000E+00
  0.2000E+00
  0.2000E+00
  0.2000E+00
  0.2000E+00
  0.2000E+00
  0.2000E+00
  0.2000E+00
  0.2000E+00
  0.2000E+00
  0.8030E+00
  0.8030E+00
  0.8030E+00
  0.8030E+00
  0.8030E+00
  0.8030E+00
  0.8030E+00
  0.8030E+00
  0.8030E+00
  0.8030E+00
  0.8030E+00
  0.8030E+00
  0.8030E+00
  0.8030E+00
  0.8030E+00
  0.8030E+00
  0.8030E+00
  0.8030E+00
  0.8029E+00
  0.8024E+00
  0.8000E+00
  0.7910E+00
  0.7680E+00
  0.7280E+00
  0.6780E+00
  0.6282E+00
  0.5860E+00
  0.5526E+00
  0.5251E+00
  0.5031E+00
  0.4897E+00
  0.4815E+00
  0.4679E+00
  0.4301E+00
  0.3715E+00
  0.3129E+00
  0.2659E+00
  0.2329E+00
  0.2127E+00
  0.2036E+00
  0.2006E+00
  0.2001E+00
  0.2000E+00
  0.2000E+00
  0.2000E+00
  0.2000E+00
  0.2000E+00
  0.2000E+00
  0.2000E+00
  0.2000E+00
  0.2000E+00
  0.2000E+00
  0.2000E+00
  0.2000E+00
  0.2000E+00
  0.2000E+00
  0.2000E+00
  0.2000E+00
  0.2000E+00
  0.2000E+00
  0.7164E+00
  0.7164E+00
  0.7164E+00
  0.7164E+00
  0.7164E+00
  0.7164E+00
  0.7164E+00
  0.7164E+00
  0.7164E+00
  0.7164E+00
  0.7164E+00
  0.7164E+00
  0.7164E+00
  0.7164E+00
  0.7164E+00
  0.7164E+00
  0.7164E+00
  0.7164E+00
  0.7163E+00
  0.7158E+00
  0.7132E+00
  0.7043E+00
  0.6843E+00
  0.6537E+00
  0.6194E+00
  0.5881E+00
  0.5637E+00
  0.5425E+00
  0.5243E+00
  0.5090E+00
  0.4933E+00
  0.4695E+00
  0.4216E+00
  0.3610E+00
  0.3042E+00
  0.2594E+00
  0.2286E+00
  0.2108E+00
  0.2031E+00
  0.2006E+00
  0.2001E+00
  0.2000E+00
  0.2000E+00
  0.2000E+00
  0.2000E+00
  0.2000E+00
  0.2000E+00
  0.2000E+00
  0.2000E+00
  0.2000E+00
  0.2000E+00
  0.2000E+00
  0.2000E+00
  0.2000E+00
  0.2000E+00
  0.2000E+00
  0.2000E+00
  0.2000E+00
  0.2000E+00
  0.2000E+00
  0.6914E+00
  0.6914E+00
  0.6914E+00
  0.6914E+00
  0.6914E+00
  0.6914E+00
  0.6914E+00
  0.6914E+00
  0.6914E+00
  0.6914E+00
  0.6914E+00
  0.6914E+00
  0.6914E+00
  0.6914E+00
  0.6914E+00
  0.6914E+00
  0.6914E+00
  0.6914E+00
  0.6913E+00
  0.6908E+00
  0.6880E+00
  0.6794E+00
  0.6618E+00
  0.6370E+00
  0.6110E+00
  0.5871E+00
  0.5662E+00
  0.5458E+00
  0.5246E+00
  0.4991E+00
  0.4592E+00
  0.3999E+00
  0.3391E+00
  0.2872E+00
  0.2477E+00
  0.2215E+00
  0.2076E+00
  0.2020E+00
  0.2004E+00
  0.2001E+00
  0.2000E+00
  0.2000E+00
  0.2000E+00
  0.2000E+00
  0.2000E+00
  0.2000E+00
  0.2000E+00
  0.2000E+00
  0.2000E+00
  0.2000E+00
  0.2000E+00
  0.2000E+00
  0.2000E+00
  0.2000E+00
  0.2000E+00
  0.2000E+00
  0.2000E+00
  0.2000E+00
  0.2000E+00
  0.2000E+00
  0.6661E+00
  0.6661E+00
  0.6661E+00
  0.6661E+00
  0.6661E+00
  0.6661E+00
  0.6661E+00
  0.6661E+00
  0.6661E+00
  0.6661E+00
  0.6661E+00
  0.6661E+00
  0.6661E+00
  0.6661E+00
  0.6661E+00
  0.6661E+00
  0.6661E+00
  0.6661E+00
  0.6660E+00
  0.6654E+00
  0.6626E+00
  0.6543E+00
  0.6383E+00
  0.6175E+00
  0.5954E+00
  0.5718E+00
  0.5453E+00
  0.5118E+00
  0.4683E+00
  0.4144E+00
  0.3570E+00
  0.3052E+00
  0.2631E+00
  0.2323E+00
  0.2134E+00
  0.2043E+00
  0.2010E+00
  0.2002E+00
  0.2000E+00
  0.2000E+00
  0.2000E+00
  0.2000E+00
  0.2000E+00
  0.2000E+00
  0.2000E+00
  0.2000E+00
  0.2000E+00
  0.2000E+00
  0.2000E+00
  0.2000E+00
  0.2000E+00
  0.2000E+00
  0.2000E+00
  0.2000E+00
  0.2000E+00
  0.2000E+00
  0.2000E+00
  0.2000E+00
  0.2000E+00
  0.2000E+00
  0.5440E+00
  0.5440E+00
  0.5440E+00
  0.5440E+00
  0.5440E+00
  0.5440E+00
  0.5440E+00
  0.5440E+00
  0.5440E+00
  0.5440E+00
  0.5440E+00
  0.5440E+00
  0.5440E+00
  0.5440E+00
  0.5440E+00
  0.5440E+00
  0.5440E+00
  0.5440E+00
  0.5439E+00
  0.5434E+00
  0.5409E+00
  0.5343E+00
  0.5221E+00
  0.5052E+00
  0.4832E+00
  0.4548E+00
  0.4190E+00
  0.3786E+00
  0.3374E+00
  0.2977E+00
  0.2628E+00
  0.2352E+00
  0.2164E+00
  0.2061E+00
  0.2018E+00
  0.2004E+00
  0.2001E+00
  0.2000E+00
  0.2000E+00
  0.2000E+00
  0.2000E+00
  0.2000E+00
  0.2000E+00
  0.2000E+00
  0.2000E+00
  0.2000E+00
  0.2000E+00
  0.2000E+00
  0.2000E+00
  0.2000E+00
  0.2000E+00
  0.2000E+00
  0.2000E+00
  0.2000E+00
  0.2000E+00
  0.2000E+00
  0.2000E+00
  0.2000E+00
  0.2000E+00
  0.2000E+00
  0.3475E+00
  0.3475E+00
  0.3475E+00
  0.3475E+00
  0.3475E+00
  0.3475E+00
  0.3475E+00
  0.3475E+00
  0.3475E+00
  0.3475E+00
  0.3475E+00
  0.3475E+00
  0.3475E+00
  0.3475E+00
  0.3475E+00
  0.3475E+00
  0.3475E+00
  0.3475E+00
  0.3474E+00
  0.3471E+00
  0.3461E+00
  0.3432E+00
  0.3377E+00
  0.3289E+00
  0.3163E+00
  0.3001E+00
  0.2812E+00
  0.2610E+00
  0.2414E+00
  0.2246E+00
  0.2123E+00
  0.2051E+00
  0.2017E+00
  0.2004E+00
  0.2001E+00
  0.2000E+00
  0.2000E+00
  0.2000E+00
  0.2000E+00
  0.2000E+00
  0.2000E+00
  0.2000E+00
  0.2000E+00
  0.2000E+00
  0.2000E+00
  0.2000E+00
  0.2000E+00
  0.2000E+00
  0.2000E+00
  0.2000E+00
  0.2000E+00
  0.2000E+00
  0.2000E+00
  0.2000E+00
  0.2000E+00
  0.2000E+00
  0.2000E+00
  0.2000E+00
  0.2000E+00
  0.2000E+00
  0.2336E+00
  0.2336E+00
  0.2336E+00
  0.2336E+00
  0.2336E+00
  0.2336E+00
  0.2336E+00
  0.2336E+00
  0.2336E+00
  0.2336E+00
  0.2336E+00
  0.2336E+00
  0.2336E+00
  0.2336E+00
  0.2336E+00
  0.2336E+00
  0.2336E+00
  0.2336E+00
  0.2336E+00
  0.2335E+00
  0.2332E+00
  0.2325E+00
  0.2309E+00
  0.2281E+00
  0.2240E+00
  0.2189E+00
  0.2133E+00
  0.2082E+00
  0.2043E+00
  0.2019E+00
  0.2007E+00
  0.2002E+00
  0.2001E+00
  0.2000E+00
  0.2000E+00
  0.2000E+00
  0.2000E+00
  0.2000E+00
  0.2000E+00
  0.2000E+00
  0.2000E+00
  0.2000E+00
  0.2000E+00
  0.2000E+00
  0.2000E+00
  0.2000E+00
  0.2000E+00
  0.2000E+00
  0.2000E+00
  0.2000E+00
  0.2000E+00
  0.2000E+00
  0.2000E+00
  0.2000E+00
  0.2000E+00
  0.2000E+00
  0.2000E+00
  0.2000E+00
  0.2000E+00
  0.2000E+00
  0.2018E+00
  0.2018E+00
  0.2018E+00
  0.2018E+00
  0.2018E+00
  0.2018E+00
  0.2018E+00
  0.2018E+00
  0.2018E+00
  0.2018E+00
  0.2018E+00
  0.2018E+00
  0.2018E+00
  0.2018E+00
  0.2018E+00
  0.2018E+00
  0.2018E+00
  0.2018E+00
  0.2018E+00
  0.2017E+00
  0.2017E+00
  0.2016E+00
  0.2015E+00
  0.2012E+00
  0.2009E+00
  0.2006E+00
  0.2004E+00
  0.2002E+00
  0.2001E+00
  0.2000E+00
  0.2000E+00
  0.2000E+00
  0.2000E+00
  0.2000E+00
  0.2000E+00
  0.2000E+00
  0.2000E+00
  0.2000E+00
  0.2000E+00
  0.2000E+00
  0.2000E+00
  0.2000E+00
  0.2000E+00
  0.2000E+00
  0.2000E+00
  0.2000E+00
  0.2000E+00
  0.2000E+00
  0.2000E+00
  0.2000E+00
  0.2000E+00
  0.2000E+00
  0.2000E+00
  0.2000E+00
  0.2000E+00
  0.2000E+00
  0.2000E+00
  0.2000E+00
  0.2000E+00
  0.2000E+00
  0.2000E+00
  0.2000E+00
  0.2000E+00
  0.2000E+00
  0.2000E+00
  0.2000E+00
  0.2000E+00
  0.2000E+00
  0.2000E+00
  0.2000E+00
  0.2000E+00
  0.2000E+00
  0.2000E+00
  0.2000E+00
  0.2000E+00
  0.2000E+00
  0.2000E+00
  0.2000E+00
  0.2000E+00
  0.2000E+00
  0.2000E+00
  0.2000E+00
  0.2000E+00
  0.2000E+00
  0.2000E+00
  0.2000E+00
  0.2000E+00
  0.2000E+00
  0.2000E+00
  0.2000E+00
  0.2000E+00
  0.2000E+00
  0.2000E+00
  0.2000E+00
  0.2000E+00
  0.2000E+00
  0.2000E+00
  0.2000E+00
  0.2000E+00
  0.2000E+00
  0.2000E+00
  0.2000E+00
  0.2000E+00
  0.2000E+00
  0.2000E+00
  0.2000E+00
  0.2000E+00
  0.2000E+00
  0.2000E+00
  0.2000E+00
  0.2000E+00
  0.2000E+00
  0.2000E+00
  0.2000E+00
  0.2000E+00
  0.2000E+00
  0.2000E+00
  0.2000E+00
  0.2000E+00
  0.2000E+00
  0.2000E+00
  0.2000E+00
  0.2000E+00
  0.2000E+00
  0.2000E+00
  0.2000E+00
  0.2000E+00
  0.2000E+00
  0.2000E+00
  0.2000E+00
  0.2000E+00
  0.2000E+00
  0.2000E+00
  0.2000E+00
  0.2000E+00
  0.2000E+00
  0.2000E+00
  0.2000E+00
  0.2000E+00
  0.2000E+00
  0.2000E+00
  0.2000E+00
  0.2000E+00
  0.2000E+00
  0.2000E+00
  0.2000E+00
  0.2000E+00
  0.2000E+00
  0.2000E+00
  0.2000E+00
  0.2000E+00
  0.2000E+00
  0.2000E+00
  0.2000E+00
  0.2000E+00
  0.2000E+00
  0.2000E+00
  0.2000E+00
  0.2000E+00
  0.2000E+00
  0.2000E+00
  0.2000E+00
  0.2000E+00
  0.2000E+00
  0.2000E+00
  0.2000E+00
  0.2000E+00
  0.2000E+00
  0.2000E+00
  0.2000E+00
  0.2000E+00
  0.2000E+00
  0.2000E+00
  0.2000E+00
  0.2000E+00
  0.2000E+00
  0.2000E+00
  0.2000E+00
  0.2000E+00
  0.2000E+00
  0.2000E+00
  0.2000E+00
  0.2000E+00
  0.2000E+00
  0.2000E+00
  0.2000E+00
  0.2000E+00
  0.2000E+00
  0.2000E+00
  0.2000E+00
  0.2000E+00
  0.2000E+00
  0.2000E+00
  0.2000E+00
  0.2000E+00
  0.2000E+00
  0.2000E+00
  0.2000E+00
  0.2000E+00
  0.2000E+00
  0.2000E+00
  0.2000E+00
  0.2000E+00
  0.2000E+00
  0.2000E+00
  0.2000E+00
  0.2000E+00
  0.2000E+00
  0.2000E+00
  0.2000E+00
  0.2000E+00
  0.2000E+00
  0.2000E+00
  0.2000E+00
  0.2000E+00
  0.2000E+00
  0.2000E+00
  0.2000E+00
  0.2000E+00
  0.2000E+00
  0.2000E+00
  0.2000E+00
  0.2000E+00
  0.2000E+00
  0.2000E+00
  0.2000E+00
  0.2000E+00
  0.2000E+00
  0.2000E+00
  0.2000E+00
  0.2000E+00
  0.2000E+00
  0.2000E+00
  0.2000E+00
  0.2000E+00
  0.2000E+00
  0.2000E+00
  0.2000E+00
  0.2000E+00
  0.2000E+00
  0.2000E+00
  0.2000E+00
  0.2000E+00
  0.2000E+00
  0.2000E+00
  0.2000E+00
  0.2000E+00
  0.2000E+00
  0.2000E+00
  0.2000E+00
  0.2000E+00
  0.2000E+00
  0.2000E+00
  0.2000E+00
  0.2000E+00
  0.2000E+00
  0.2000E+00
  0.2000E+00
  0.2000E+00
  0.2000E+00
  0.2000E+00
  0.2000E+00
  0.2000E+00
  0.2000E+00
  0.2000E+00
  0.2000E+00
  0.2000E+00
  0.2000E+00
  0.2000E+00
  0.2000E+00
  0.2000E+00
  0.2000E+00
  0.2000E+00
  0.2000E+00
  0.2000E+00
  0.2000E+00
  0.2000E+00
  0.2000E+00
  0.2000E+00
  0.2000E+00
  0.2000E+00
  0.2000E+00
  0.2000E+00
  0.2000E+00
  0.2000E+00
  0.2000E+00
  0.2000E+00
  0.2000E+00
  0.2000E+00
  0.2000E+00
  0.2000E+00
  0.2000E+00
  0.2000E+00
  0.2000E+00
  0.2000E+00
  0.2000E+00
  0.2000E+00
  0.2000E+00
  0.2000E+00
  0.2000E+00
  0.2000E+00
  0.2000E+00
  0.2000E+00
  0.2000E+00
  0.2000E+00
  0.2000E+00
  0.2000E+00
  0.2000E+00
  0.2000E+00
  0.2000E+00
  0.2000E+00
  0.2000E+00
  0.2000E+00
  0.2000E+00
  0.2000E+00
  0.2000E+00
  0.2000E+00
  0.2000E+00
  0.2000E+00
  0.2000E+00
  0.2000E+00
  0.2000E+00
  0.2000E+00
  0.2000E+00
  0.2000E+00
  0.2000E+00
  0.2000E+00
  0.2000E+00
  0.2000E+00
  0.2000E+00
  0.2000E+00
  0.2000E+00
  0.2000E+00
  0.2000E+00
  0.2000E+00
  0.2000E+00
  0.2000E+00
  0.2000E+00
  0.2000E+00
  0.2000E+00
  0.2000E+00
  0.2000E+00
  0.2000E+00
  0.2000E+00
  0.2000E+00
  0.2000E+00
  0.2000E+00
  0.2000E+00
  0.2000E+00
  0.2000E+00
  0.2000E+00
  0.2000E+00
  0.2000E+00
  0.2000E+00
  0.2000E+00
  0.2000E+00
  0.2000E+00
  0.2000E+00
  0.2000E+00
  0.2000E+00
  0.2000E+00
  0.2000E+00
  0.2000E+00
  0.2000E+00
  0.2000E+00
  0.2000E+00
  0.2000E+00
  0.2000E+00
  0.2000E+00
  0.2000E+00
  0.2000E+00
  0.2000E+00
  0.2000E+00
  0.2000E+00
  0.2000E+00
  0.2000E+00
  0.2000E+00
  0.2000E+00
  0.2000E+00
  0.2000E+00
  0.2000E+00
  0.2000E+00
  0.2000E+00
  0.2000E+00
  0.2000E+00
  0.2000E+00
  0.2000E+00
  0.2000E+00
  0.2000E+00
  0.2000E+00
  0.2000E+00
  0.2000E+00
  0.2000E+00
  0.2000E+00
  0.2000E+00
  0.2000E+00
  0.2000E+00
  0.2000E+00
  0.2000E+00
  0.2000E+00
  0.2000E+00
  0.2000E+00
  0.2000E+00
  0.2000E+00
  0.2000E+00
  0.2000E+00
  0.2000E+00
  0.2000E+00
  0.2000E+00
  0.2000E+00
  0.2000E+00
  0.2000E+00
  0.2000E+00
  0.2000E+00
  0.2000E+00
  0.2000E+00
  0.2000E+00
  0.2000E+00
  0.2000E+00
  0.2000E+00
  0.2000E+00
  0.2000E+00
  0.2000E+00
  0.2000E+00
  0.2000E+00
  0.2000E+00
  0.2000E+00
  0.2000E+00
  0.2000E+00
  0.2000E+00
  0.2000E+00
  0.2000E+00
  0.2000E+00
  0.2000E+00
  0.2000E+00
  0.2000E+00
  0.2000E+00
  0.2000E+00
  0.2000E+00
  0.2000E+00
  0.2000E+00
  0.2000E+00
  0.2000E+00
  0.2000E+00
  0.2000E+00
  0.2000E+00
  0.2000E+00
  0.2000E+00
  0.2000E+00
  0.2000E+00
  0.2000E+00
  0.2000E+00
  0.2000E+00
  0.2000E+00
  0.2000E+00
  0.2000E+00
  0.2000E+00
  0.2000E+00
  0.2000E+00
  0.2000E+00
  0.2000E+00
  0.2000E+00
  0.2000E+00
  0.2000E+00
  0.2000E+00
  0.2000E+00
  0.2000E+00
  0.2000E+00
  0.2000E+00
  0.2000E+00
  0.2000E+00
  0.2000E+00
  0.2000E+00
  0.2000E+00
  0.2000E+00
  0.2000E+00
  0.2000E+00
  0.2000E+00
  0.2000E+00
  0.2000E+00
  0.2000E+00
  0.2000E+00
  0.2000E+00
  0.2000E+00