# vtk DataFile Version 3.0
vtk output
ASCII
DATASET RECTILINEAR_GRID
DIMENSIONS          61          61 1
X_COORDINATES    61 double
  0.0000E+00
  0.1667E+00
  0.3333E+00
  0.5000E+00
  0.6667E+00
  0.8333E+00
  0.1000E+01
  0.1167E+01
  0.1333E+01
  0.1500E+01
  0.1667E+01
  0.1833E+01
  0.2000E+01
  0.2167E+01
  0.2333E+01
  0.2500E+01
  0.2667E+01
  0.2833E+01
  0.3000E+01
  0.3167E+01
  0.3333E+01
  0.3500E+01
  0.3667E+01
  0.3833E+01
  0.4000E+01
  0.4167E+01
  0.4333E+01
  0.4500E+01
  0.4667E+01
  0.4833E+01
  0.5000E+01
  0.5167E+01
  0.5333E+01
  0.5500E+01
  0.5667E+01
  0.5833E+01
  0.6000E+01
  0.6167E+01
  0.6333E+01
  0.6500E+01
  0.6667E+01
  0.6833E+01
  0.7000E+01
  0.7167E+01
  0.7333E+01
  0.7500E+01
  0.7667E+01
  0.7833E+01
  0.8000E+01
  0.8167E+01
  0.8333E+01
  0.8500E+01
  0.8667E+01
  0.8833E+01
  0.9000E+01
  0.9167E+01
  0.9333E+01
  0.9500E+01
  0.9667E+01
  0.9833E+01
  0.1000E+02
Y_COORDINATES    61 double
  0.0000E+00
  0.1667E+00
  0.3333E+00
  0.5000E+00
  0.6667E+00
  0.8333E+00
  0.1000E+01
  0.1167E+01
  0.1333E+01
  0.1500E+01
  0.1667E+01
  0.1833E+01
  0.2000E+01
  0.2167E+01
  0.2333E+01
  0.2500E+01
  0.2667E+01
  0.2833E+01
  0.3000E+01
  0.3167E+01
  0.3333E+01
  0.3500E+01
  0.3667E+01
  0.3833E+01
  0.4000E+01
  0.4167E+01
  0.4333E+01
  0.4500E+01
  0.4667E+01
  0.4833E+01
  0.5000E+01
  0.5167E+01
  0.5333E+01
  0.5500E+01
  0.5667E+01
  0.5833E+01
  0.6000E+01
  0.6167E+01
  0.6333E+01
  0.6500E+01
  0.6667E+01
  0.6833E+01
  0.7000E+01
  0.7167E+01
  0.7333E+01
  0.7500E+01
  0.7667E+01
  0.7833E+01
  0.8000E+01
  0.8167E+01
  0.8333E+01
  0.8500E+01
  0.8667E+01
  0.8833E+01
  0.9000E+01
  0.9167E+01
  0.9333E+01
  0.9500E+01
  0.9667E+01
  0.9833E+01
  0.1000E+02
Z_COORDINATES 1 double
0
CELL_DATA                 3600
FIELD FieldData 4
density 1                 3600 double
  0.1292E+01
  0.1292E+01
  0.1291E+01
  0.1289E+01
  0.1283E+01
  0.1271E+01
  0.1251E+01
  0.1223E+01
  0.1189E+01
  0.1152E+01
  0.1114E+01
  0.1076E+01
  0.1038E+01
  0.1001E+01
  0.9656E+00
  0.9310E+00
  0.8974E+00
  0.8650E+00
  0.8338E+00
  0.8037E+00
  0.7749E+00
  0.7471E+00
  0.7205E+00
  0.6950E+00
  0.6705E+00
  0.6470E+00
  0.6244E+00
  0.6027E+00
  0.5819E+00
  0.5620E+00
  0.5428E+00
  0.5244E+00
  0.5068E+00
  0.4900E+00
  0.4739E+00
  0.4586E+00
  0.4441E+00
  0.4303E+00
  0.4173E+00
  0.4053E+00
  0.3945E+00
  0.3861E+00
  0.3806E+00
  0.3799E+00
  0.3814E+00
  0.3868E+00
  0.3931E+00
  0.3985E+00
  0.4028E+00
  0.4080E+00
  0.4163E+00
  0.4289E+00
  0.4461E+00
  0.4821E+00
  0.6070E+00
  0.9121E+00
  0.1197E+01
  0.1119E+01
  0.1093E+01
  0.1041E+01
  0.1292E+01
  0.1292E+01
  0.1291E+01
  0.1289E+01
  0.1283E+01
  0.1271E+01
  0.1251E+01
  0.1223E+01
  0.1189E+01
  0.1152E+01
  0.1114E+01
  0.1075E+01
  0.1038E+01
  0.1001E+01
  0.9654E+00
  0.9307E+00
  0.8971E+00
  0.8647E+00
  0.8335E+00
  0.8035E+00
  0.7746E+00
  0.7469E+00
  0.7203E+00
  0.6948E+00
  0.6703E+00
  0.6467E+00
  0.6242E+00
  0.6025E+00
  0.5817E+00
  0.5617E+00
  0.5426E+00
  0.5242E+00
  0.5066E+00
  0.4898E+00
  0.4737E+00
  0.4584E+00
  0.4438E+00
  0.4300E+00
  0.4171E+00
  0.4051E+00
  0.3943E+00
  0.3858E+00
  0.3803E+00
  0.3796E+00
  0.3810E+00
  0.3863E+00
  0.3927E+00
  0.3982E+00
  0.4027E+00
  0.4085E+00
  0.4174E+00
  0.4310E+00
  0.4496E+00
  0.4860E+00
  0.6111E+00
  0.9152E+00
  0.1195E+01
  0.1117E+01
  0.1093E+01
  0.1046E+01
  0.1291E+01
  0.1291E+01
  0.1290E+01
  0.1288E+01
  0.1282E+01
  0.1270E+01
  0.1250E+01
  0.1222E+01
  0.1188E+01
  0.1151E+01
  0.1113E+01
  0.1075E+01
  0.1037E+01
  0.1001E+01
  0.9649E+00
  0.9302E+00
  0.8966E+00
  0.8642E+00
  0.8330E+00
  0.8030E+00
  0.7741E+00
  0.7464E+00
  0.7198E+00
  0.6943E+00
  0.6698E+00
  0.6463E+00
  0.6237E+00
  0.6020E+00
  0.5812E+00
  0.5613E+00
  0.5421E+00
  0.5237E+00
  0.5062E+00
  0.4893E+00
  0.4732E+00
  0.4579E+00
  0.4433E+00
  0.4296E+00
  0.4166E+00
  0.4046E+00
  0.3938E+00
  0.3853E+00
  0.3797E+00
  0.3789E+00
  0.3803E+00
  0.3855E+00
  0.3919E+00
  0.3976E+00
  0.4028E+00
  0.4096E+00
  0.4199E+00
  0.4358E+00
  0.4568E+00
  0.4942E+00
  0.6195E+00
  0.9184E+00
  0.1192E+01
  0.1117E+01
  0.1091E+01
  0.1047E+01
  0.1290E+01
  0.1289E+01
  0.1289E+01
  0.1286E+01
  0.1281E+01
  0.1269E+01
  0.1249E+01
  0.1221E+01
  0.1187E+01
  0.1150E+01
  0.1112E+01
  0.1074E+01
  0.1036E+01
  0.9998E+00
  0.9641E+00
  0.9294E+00
  0.8958E+00
  0.8635E+00
  0.8322E+00
  0.8022E+00
  0.7734E+00
  0.7457E+00
  0.7191E+00
  0.6936E+00
  0.6691E+00
  0.6456E+00
  0.6230E+00
  0.6013E+00
  0.5805E+00
  0.5606E+00
  0.5414E+00
  0.5230E+00
  0.5054E+00
  0.4886E+00
  0.4725E+00
  0.4572E+00
  0.4426E+00
  0.4288E+00
  0.4159E+00
  0.4038E+00
  0.3930E+00
  0.3845E+00
  0.3788E+00
  0.3779E+00
  0.3791E+00
  0.3842E+00
  0.3907E+00
  0.3969E+00
  0.4032E+00
  0.4116E+00
  0.4245E+00
  0.4440E+00
  0.4683E+00
  0.5069E+00
  0.6316E+00
  0.9239E+00
  0.1184E+01
  0.1113E+01
  0.1086E+01
  0.1048E+01
  0.1288E+01
  0.1288E+01
  0.1287E+01
  0.1285E+01
  0.1279E+01
  0.1267E+01
  0.1248E+01
  0.1220E+01
  0.1186E+01
  0.1149E+01
  0.1111E+01
  0.1073E+01
  0.1035E+01
  0.9987E+00
  0.9630E+00
  0.9283E+00
  0.8948E+00
  0.8624E+00
  0.8312E+00
  0.8012E+00
  0.7723E+00
  0.7446E+00
  0.7181E+00
  0.6926E+00
  0.6681E+00
  0.6446E+00
  0.6220E+00
  0.6003E+00
  0.5795E+00
  0.5596E+00
  0.5404E+00
  0.5221E+00
  0.5045E+00
  0.4876E+00
  0.4715E+00
  0.4562E+00
  0.4416E+00
  0.4278E+00
  0.4149E+00
  0.4028E+00
  0.3920E+00
  0.3834E+00
  0.3776E+00
  0.3765E+00
  0.3776E+00
  0.3826E+00
  0.3892E+00
  0.3962E+00
  0.4040E+00
  0.4152E+00
  0.4323E+00
  0.4568E+00
  0.4852E+00
  0.5245E+00
  0.6476E+00
  0.9293E+00
  0.1172E+01
  0.1106E+01
  0.1081E+01
  0.1050E+01
  0.1285E+01
  0.1285E+01
  0.1284E+01
  0.1282E+01
  0.1277E+01
  0.1265E+01
  0.1246E+01
  0.1218E+01
  0.1184E+01
  0.1148E+01
  0.1110E+01
  0.1071E+01
  0.1034E+01
  0.9973E+00
  0.9616E+00
  0.9269E+00
  0.8934E+00
  0.8610E+00
  0.8298E+00
  0.7998E+00
  0.7710E+00
  0.7433E+00
  0.7167E+00
  0.6912E+00
  0.6668E+00
  0.6433E+00
  0.6207E+00
  0.5991E+00
  0.5783E+00
  0.5583E+00
  0.5392E+00
  0.5208E+00
  0.5032E+00
  0.4864E+00
  0.4703E+00
  0.4550E+00
  0.4404E+00
  0.4266E+00
  0.4136E+00
  0.4015E+00
  0.3907E+00
  0.3820E+00
  0.3760E+00
  0.3746E+00
  0.3757E+00
  0.3806E+00
  0.3875E+00
  0.3955E+00
  0.4058E+00
  0.4215E+00
  0.4449E+00
  0.4757E+00
  0.5078E+00
  0.5466E+00
  0.6653E+00
  0.9332E+00
  0.1157E+01
  0.1098E+01
  0.1073E+01
  0.1052E+01
  0.1282E+01
  0.1282E+01
  0.1281E+01
  0.1279E+01
  0.1274E+01
  0.1263E+01
  0.1243E+01
  0.1216E+01
  0.1182E+01
  0.1146E+01
  0.1108E+01
  0.1070E+01
  0.1032E+01
  0.9955E+00
  0.9598E+00
  0.9252E+00
  0.8917E+00
  0.8593E+00
  0.8281E+00
  0.7981E+00
  0.7693E+00
  0.7417E+00
  0.7151E+00
  0.6896E+00
  0.6651E+00
  0.6417E+00
  0.6191E+00
  0.5975E+00
  0.5767E+00
  0.5567E+00
  0.5376E+00
  0.5192E+00
  0.5016E+00
  0.4848E+00
  0.4687E+00
  0.4534E+00
  0.4388E+00
  0.4250E+00
  0.4120E+00
  0.3999E+00
  0.3890E+00
  0.3802E+00
  0.3739E+00
  0.3724E+00
  0.3734E+00
  0.3783E+00
  0.3856E+00
  0.3955E+00
  0.4103E+00
  0.4331E+00
  0.4646E+00
  0.5007E+00
  0.5333E+00
  0.5694E+00
  0.6824E+00
  0.9340E+00
  0.1136E+01
  0.1088E+01
  0.1064E+01
  0.1054E+01
  0.1279E+01
  0.1279E+01
  0.1278E+01
  0.1276E+01
  0.1271E+01
  0.1259E+01
  0.1240E+01
  0.1213E+01
  0.1180E+01
  0.1143E+01
  0.1105E+01
  0.1067E+01
  0.1030E+01
  0.9934E+00
  0.9577E+00
  0.9231E+00
  0.8896E+00
  0.8572E+00
  0.8261E+00
  0.7961E+00
  0.7673E+00
  0.7396E+00
  0.7131E+00
  0.6876E+00
  0.6632E+00
  0.6397E+00
  0.6172E+00
  0.5955E+00
  0.5748E+00
  0.5548E+00
  0.5357E+00
  0.5173E+00
  0.4997E+00
  0.4829E+00
  0.4668E+00
  0.4514E+00
  0.4368E+00
  0.4230E+00
  0.4100E+00
  0.3979E+00
  0.3870E+00
  0.3780E+00
  0.3714E+00
  0.3696E+00
  0.3708E+00
  0.3757E+00
  0.3841E+00
  0.3978E+00
  0.4209E+00
  0.4533E+00
  0.4919E+00
  0.5291E+00
  0.5594E+00
  0.5924E+00
  0.6986E+00
  0.9302E+00
  0.1112E+01
  0.1076E+01
  0.1054E+01
  0.1054E+01
  0.1275E+01
  0.1274E+01
  0.1274E+01
  0.1272E+01
  0.1267E+01
  0.1256E+01
  0.1237E+01
  0.1210E+01
  0.1177E+01
  0.1141E+01
  0.1103E+01
  0.1065E+01
  0.1027E+01
  0.9908E+00
  0.9551E+00
  0.9205E+00
  0.8871E+00
  0.8547E+00
  0.8236E+00
  0.7936E+00
  0.7649E+00
  0.7372E+00
  0.7107E+00
  0.6852E+00
  0.6608E+00
  0.6373E+00
  0.6148E+00
  0.5932E+00
  0.5724E+00
  0.5525E+00
  0.5334E+00
  0.5150E+00
  0.4974E+00
  0.4806E+00
  0.4645E+00
  0.4491E+00
  0.4345E+00
  0.4206E+00
  0.4076E+00
  0.3955E+00
  0.3845E+00
  0.3753E+00
  0.3684E+00
  0.3665E+00
  0.3678E+00
  0.3730E+00
  0.3844E+00
  0.4058E+00
  0.4383E+00
  0.4775E+00
  0.5196E+00
  0.5563E+00
  0.5849E+00
  0.6149E+00
  0.7121E+00
  0.9196E+00
  0.1082E+01
  0.1064E+01
  0.1043E+01
  0.1050E+01
  0.1270E+01
  0.1269E+01
  0.1269E+01
  0.1267E+01
  0.1262E+01
  0.1251E+01
  0.1233E+01
  0.1207E+01
  0.1174E+01
  0.1137E+01
  0.1100E+01
  0.1062E+01
  0.1024E+01
  0.9877E+00
  0.9521E+00
  0.9176E+00
  0.8841E+00
  0.8518E+00
  0.8207E+00
  0.7908E+00
  0.7620E+00
  0.7344E+00
  0.7079E+00
  0.6824E+00
  0.6580E+00
  0.6346E+00
  0.6121E+00
  0.5905E+00
  0.5697E+00
  0.5498E+00
  0.5307E+00
  0.5123E+00
  0.4947E+00
  0.4779E+00
  0.4618E+00
  0.4464E+00
  0.4317E+00
  0.4178E+00
  0.4048E+00
  0.3926E+00
  0.3815E+00
  0.3721E+00
  0.3647E+00
  0.3632E+00
  0.3645E+00
  0.3717E+00
  0.3895E+00
  0.4212E+00
  0.4631E+00
  0.5070E+00
  0.5479E+00
  0.5819E+00
  0.6087E+00
  0.6346E+00
  0.7195E+00
  0.9003E+00
  0.1048E+01
  0.1052E+01
  0.1033E+01
  0.1046E+01
  0.1264E+01
  0.1264E+01
  0.1263E+01
  0.1261E+01
  0.1256E+01
  0.1246E+01
  0.1228E+01
  0.1202E+01
  0.1170E+01
  0.1134E+01
  0.1096E+01
  0.1058E+01
  0.1021E+01
  0.9842E+00
  0.9486E+00
  0.9141E+00
  0.8807E+00
  0.8484E+00
  0.8173E+00
  0.7874E+00
  0.7586E+00
  0.7311E+00
  0.7046E+00
  0.6791E+00
  0.6548E+00
  0.6313E+00
  0.6088E+00
  0.5873E+00
  0.5665E+00
  0.5466E+00
  0.5275E+00
  0.5091E+00
  0.4915E+00
  0.4747E+00
  0.4585E+00
  0.4431E+00
  0.4285E+00
  0.4145E+00
  0.4014E+00
  0.3892E+00
  0.3778E+00
  0.3682E+00
  0.3604E+00
  0.3594E+00
  0.3619E+00
  0.3737E+00
  0.4025E+00
  0.4468E+00
  0.4958E+00
  0.5394E+00
  0.5753E+00
  0.6060E+00
  0.6295E+00
  0.6490E+00
  0.7192E+00
  0.8700E+00
  0.1009E+01
  0.1041E+01
  0.1025E+01
  0.1046E+01
  0.1257E+01
  0.1257E+01
  0.1257E+01
  0.1255E+01
  0.1250E+01
  0.1241E+01
  0.1223E+01
  0.1197E+01
  0.1165E+01
  0.1129E+01
  0.1092E+01
  0.1054E+01
  0.1017E+01
  0.9801E+00
  0.9446E+00
  0.9101E+00
  0.8767E+00
  0.8445E+00
  0.8134E+00
  0.7835E+00
  0.7548E+00
  0.7272E+00
  0.7008E+00
  0.6754E+00
  0.6510E+00
  0.6276E+00
  0.6051E+00
  0.5835E+00
  0.5628E+00
  0.5429E+00
  0.5238E+00
  0.5054E+00
  0.4878E+00
  0.4709E+00
  0.4547E+00
  0.4393E+00
  0.4245E+00
  0.4105E+00
  0.3973E+00
  0.3849E+00
  0.3733E+00
  0.3632E+00
  0.3556E+00
  0.3555E+00
  0.3618E+00
  0.3847E+00
  0.4276E+00
  0.4813E+00
  0.5305E+00
  0.5693E+00
  0.6002E+00
  0.6277E+00
  0.6452E+00
  0.6554E+00
  0.7066E+00
  0.8275E+00
  0.9667E+00
  0.1032E+01
  0.1019E+01
  0.1047E+01
  0.1250E+01
  0.1250E+01
  0.1249E+01
  0.1248E+01
  0.1243E+01
  0.1234E+01
  0.1217E+01
  0.1192E+01
  0.1160E+01
  0.1124E+01
  0.1087E+01
  0.1049E+01
  0.1012E+01
  0.9755E+00
  0.9400E+00
  0.9055E+00
  0.8722E+00
  0.8400E+00
  0.8089E+00
  0.7791E+00
  0.7504E+00
  0.7228E+00
  0.6964E+00
  0.6710E+00
  0.6467E+00
  0.6233E+00
  0.6008E+00
  0.5792E+00
  0.5585E+00
  0.5385E+00
  0.5194E+00
  0.5010E+00
  0.4833E+00
  0.4664E+00
  0.4501E+00
  0.4346E+00
  0.4197E+00
  0.4056E+00
  0.3922E+00
  0.3795E+00
  0.3677E+00
  0.3561E+00
  0.3514E+00
  0.3541E+00
  0.3695E+00
  0.4078E+00
  0.4629E+00
  0.5190E+00
  0.5616E+00
  0.5931E+00
  0.6200E+00
  0.6442E+00
  0.6532E+00
  0.6530E+00
  0.6822E+00
  0.7739E+00
  0.9212E+00
  0.1025E+01
  0.1015E+01
  0.1045E+01
  0.1242E+01
  0.1242E+01
  0.1241E+01
  0.1240E+01
  0.1235E+01
  0.1226E+01
  0.1210E+01
  0.1186E+01
  0.1154E+01
  0.1119E+01
  0.1081E+01
  0.1044E+01
  0.1007E+01
  0.9702E+00
  0.9348E+00
  0.9003E+00
  0.8670E+00
  0.8348E+00
  0.8038E+00
  0.7740E+00
  0.7453E+00
  0.7178E+00
  0.6913E+00
  0.6660E+00
  0.6416E+00
  0.6182E+00
  0.5957E+00
  0.5741E+00
  0.5533E+00
  0.5333E+00
  0.5141E+00
  0.4957E+00
  0.4779E+00
  0.4609E+00
  0.4445E+00
  0.4288E+00
  0.4138E+00
  0.3996E+00
  0.3860E+00
  0.3729E+00
  0.3604E+00
  0.3489E+00
  0.3490E+00
  0.3589E+00
  0.3906E+00
  0.4436E+00
  0.5041E+00
  0.5534E+00
  0.5860E+00
  0.6116E+00
  0.6351E+00
  0.6530E+00
  0.6538E+00
  0.6386E+00
  0.6456E+00
  0.7138E+00
  0.8749E+00
  0.1017E+01
  0.1013E+01
  0.1038E+01
  0.1232E+01
  0.1232E+01
  0.1232E+01
  0.1230E+01
  0.1227E+01
  0.1218E+01
  0.1202E+01
  0.1178E+01
  0.1147E+01
  0.1112E+01
  0.1075E+01
  0.1038E+01
  0.1000E+01
  0.9641E+00
  0.9287E+00
  0.8944E+00
  0.8611E+00
  0.8289E+00
  0.7979E+00
  0.7681E+00
  0.7394E+00
  0.7119E+00
  0.6854E+00
  0.6600E+00
  0.6356E+00
  0.6122E+00
  0.5897E+00
  0.5680E+00
  0.5471E+00
  0.5271E+00
  0.5078E+00
  0.4892E+00
  0.4713E+00
  0.4542E+00
  0.4377E+00
  0.4218E+00
  0.4067E+00
  0.3922E+00
  0.3782E+00
  0.3648E+00
  0.3496E+00
  0.3466E+00
  0.3516E+00
  0.3771E+00
  0.4256E+00
  0.4875E+00
  0.5430E+00
  0.5796E+00
  0.6045E+00
  0.6258E+00
  0.6457E+00
  0.6538E+00
  0.6487E+00
  0.6104E+00
  0.5977E+00
  0.6541E+00
  0.8289E+00
  0.1008E+01
  0.1018E+01
  0.1031E+01
  0.1222E+01
  0.1222E+01
  0.1221E+01
  0.1220E+01
  0.1216E+01
  0.1208E+01
  0.1193E+01
  0.1170E+01
  0.1140E+01
  0.1105E+01
  0.1068E+01
  0.1030E+01
  0.9934E+00
  0.9571E+00
  0.9218E+00
  0.8874E+00
  0.8541E+00
  0.8220E+00
  0.7910E+00
  0.7611E+00
  0.7324E+00
  0.7049E+00
  0.6784E+00
  0.6530E+00
  0.6285E+00
  0.6050E+00
  0.5824E+00
  0.5606E+00
  0.5397E+00
  0.5195E+00
  0.5001E+00
  0.4814E+00
  0.4634E+00
  0.4460E+00
  0.4294E+00
  0.4133E+00
  0.3980E+00
  0.3831E+00
  0.3691E+00
  0.3526E+00
  0.3452E+00
  0.3482E+00
  0.3673E+00
  0.4104E+00
  0.4702E+00
  0.5300E+00
  0.5715E+00
  0.5975E+00
  0.6179E+00
  0.6365E+00
  0.6494E+00
  0.6493E+00
  0.6284E+00
  0.5687E+00
  0.5450E+00
  0.6017E+00
  0.7833E+00
  0.9953E+00
  0.1030E+01
  0.1028E+01
  0.1210E+01
  0.1210E+01
  0.1209E+01
  0.1208E+01
  0.1205E+01
  0.1197E+01
  0.1183E+01
  0.1160E+01
  0.1131E+01
  0.1096E+01
  0.1059E+01
  0.1022E+01
  0.9852E+00
  0.9489E+00
  0.9136E+00
  0.8792E+00
  0.8459E+00
  0.8138E+00
  0.7828E+00
  0.7529E+00
  0.7242E+00
  0.6966E+00
  0.6700E+00
  0.6445E+00
  0.6200E+00
  0.5964E+00
  0.5737E+00
  0.5518E+00
  0.5307E+00
  0.5104E+00
  0.4909E+00
  0.4720E+00
  0.4538E+00
  0.4363E+00
  0.4195E+00
  0.4034E+00
  0.3876E+00
  0.3727E+00
  0.3561E+00
  0.3452E+00
  0.3468E+00
  0.3619E+00
  0.3996E+00
  0.4560E+00
  0.5168E+00
  0.5623E+00
  0.5897E+00
  0.6096E+00
  0.6276E+00
  0.6424E+00
  0.6458E+00
  0.6346E+00
  0.5852E+00
  0.5166E+00
  0.5043E+00
  0.5596E+00
  0.7394E+00
  0.9716E+00
  0.1042E+01
  0.1024E+01
  0.1196E+01
  0.1196E+01
  0.1195E+01
  0.1194E+01
  0.1191E+01
  0.1184E+01
  0.1171E+01
  0.1149E+01
  0.1120E+01
  0.1086E+01
  0.1049E+01
  0.1012E+01
  0.9753E+00
  0.9391E+00
  0.9038E+00
  0.8695E+00
  0.8362E+00
  0.8040E+00
  0.7730E+00
  0.7431E+00
  0.7143E+00
  0.6866E+00
  0.6600E+00
  0.6344E+00
  0.6098E+00
  0.5861E+00
  0.5633E+00
  0.5413E+00
  0.5201E+00
  0.4997E+00
  0.4800E+00
  0.4610E+00
  0.4427E+00
  0.4250E+00
  0.4081E+00
  0.3917E+00
  0.3760E+00
  0.3589E+00
  0.3462E+00
  0.3466E+00
  0.3586E+00
  0.3910E+00
  0.4435E+00
  0.5056E+00
  0.5560E+00
  0.5851E+00
  0.6035E+00
  0.6202E+00
  0.6347E+00
  0.6400E+00
  0.6320E+00
  0.5907E+00
  0.5290E+00
  0.4755E+00
  0.4746E+00
  0.5288E+00
  0.6958E+00
  0.9305E+00
  0.1044E+01
  0.1017E+01
  0.1179E+01
  0.1179E+01
  0.1179E+01
  0.1178E+01
  0.1175E+01
  0.1169E+01
  0.1156E+01
  0.1135E+01
  0.1107E+01
  0.1074E+01
  0.1037E+01
  0.1000E+01
  0.9637E+00
  0.9275E+00
  0.8922E+00
  0.8579E+00
  0.8247E+00
  0.7925E+00
  0.7614E+00
  0.7315E+00
  0.7026E+00
  0.6749E+00
  0.6482E+00
  0.6225E+00
  0.5978E+00
  0.5740E+00
  0.5511E+00
  0.5290E+00
  0.5078E+00
  0.4872E+00
  0.4675E+00
  0.4484E+00
  0.4300E+00
  0.4124E+00
  0.3952E+00
  0.3788E+00
  0.3616E+00
  0.3477E+00
  0.3472E+00
  0.3574E+00
  0.3866E+00
  0.4327E+00
  0.4908E+00
  0.5447E+00
  0.5794E+00
  0.6005E+00
  0.6170E+00
  0.6298E+00
  0.6339E+00
  0.6264E+00
  0.5874E+00
  0.5289E+00
  0.4792E+00
  0.4559E+00
  0.4612E+00
  0.5076E+00
  0.6537E+00
  0.8715E+00
  0.1029E+01
  0.1012E+01
  0.1160E+01
  0.1160E+01
  0.1160E+01
  0.1159E+01
  0.1157E+01
  0.1151E+01
  0.1139E+01
  0.1119E+01
  0.1092E+01
  0.1059E+01
  0.1023E+01
  0.9865E+00
  0.9499E+00
  0.9138E+00
  0.8786E+00
  0.8444E+00
  0.8111E+00
  0.7790E+00
  0.7479E+00
  0.7179E+00
  0.6891E+00
  0.6613E+00
  0.6346E+00
  0.6088E+00
  0.5841E+00
  0.5603E+00
  0.5373E+00
  0.5152E+00
  0.4939E+00
  0.4734E+00
  0.4536E+00
  0.4346E+00
  0.4163E+00
  0.3985E+00
  0.3815E+00
  0.3633E+00
  0.3490E+00
  0.3482E+00
  0.3568E+00
  0.3844E+00
  0.4298E+00
  0.4856E+00
  0.5364E+00
  0.5701E+00
  0.5910E+00
  0.6090E+00
  0.6244E+00
  0.6288E+00
  0.6205E+00
  0.5801E+00
  0.5230E+00
  0.4766E+00
  0.4553E+00
  0.4545E+00
  0.4612E+00
  0.4963E+00
  0.6097E+00
  0.7989E+00
  0.9837E+00
  0.1017E+01
  0.1139E+01
  0.1139E+01
  0.1138E+01
  0.1138E+01
  0.1135E+01
  0.1130E+01
  0.1119E+01
  0.1100E+01
  0.1074E+01
  0.1042E+01
  0.1007E+01
  0.9703E+00
  0.9339E+00
  0.8980E+00
  0.8630E+00
  0.8288E+00
  0.7956E+00
  0.7635E+00
  0.7325E+00
  0.7026E+00
  0.6738E+00
  0.6460E+00
  0.6193E+00
  0.5936E+00
  0.5689E+00
  0.5451E+00
  0.5222E+00
  0.5002E+00
  0.4790E+00
  0.4586E+00
  0.4389E+00
  0.4200E+00
  0.4016E+00
  0.3840E+00
  0.3651E+00
  0.3504E+00
  0.3494E+00
  0.3578E+00
  0.3812E+00
  0.4222E+00
  0.4804E+00
  0.5365E+00
  0.5721E+00
  0.5902E+00
  0.6058E+00
  0.6188E+00
  0.6226E+00
  0.6133E+00
  0.5719E+00
  0.5159E+00
  0.4726E+00
  0.4553E+00
  0.4546E+00
  0.4580E+00
  0.4688E+00
  0.4927E+00
  0.5661E+00
  0.7191E+00
  0.9100E+00
  0.1039E+01
  0.1114E+01
  0.1114E+01
  0.1114E+01
  0.1113E+01
  0.1112E+01
  0.1107E+01
  0.1097E+01
  0.1079E+01
  0.1054E+01
  0.1023E+01
  0.9883E+00
  0.9523E+00
  0.9161E+00
  0.8805E+00
  0.8456E+00
  0.8116E+00
  0.7785E+00
  0.7466E+00
  0.7157E+00
  0.6859E+00
  0.6572E+00
  0.6295E+00
  0.6030E+00
  0.5774E+00
  0.5528E+00
  0.5292E+00
  0.5065E+00
  0.4846E+00
  0.4636E+00
  0.4434E+00
  0.4238E+00
  0.4049E+00
  0.3866E+00
  0.3673E+00
  0.3525E+00
  0.3513E+00
  0.3596E+00
  0.3856E+00
  0.4230E+00
  0.4704E+00
  0.5242E+00
  0.5671E+00
  0.5917E+00
  0.6085E+00
  0.6200E+00
  0.6206E+00
  0.6098E+00
  0.5659E+00
  0.5101E+00
  0.4700E+00
  0.4566E+00
  0.4559E+00
  0.4596E+00
  0.4690E+00
  0.4792E+00
  0.4914E+00
  0.5307E+00
  0.6412E+00
  0.8096E+00
  0.1059E+01
  0.1089E+01
  0.1089E+01
  0.1088E+01
  0.1088E+01
  0.1086E+01
  0.1082E+01
  0.1073E+01
  0.1057E+01
  0.1033E+01
  0.1002E+01
  0.9685E+00
  0.9329E+00
  0.8971E+00
  0.8618E+00
  0.8272E+00
  0.7934E+00
  0.7606E+00
  0.7289E+00
  0.6982E+00
  0.6687E+00
  0.6402E+00
  0.6128E+00
  0.5865E+00
  0.5611E+00
  0.5368E+00
  0.5134E+00
  0.4909E+00
  0.4692E+00
  0.4483E+00
  0.4281E+00
  0.4088E+00
  0.3897E+00
  0.3696E+00
  0.3560E+00
  0.3543E+00
  0.3625E+00
  0.3884E+00
  0.4302E+00
  0.4811E+00
  0.5253E+00
  0.5568E+00
  0.5798E+00
  0.6001E+00
  0.6188E+00
  0.6207E+00
  0.6109E+00
  0.5661E+00
  0.5092E+00
  0.4706E+00
  0.4596E+00
  0.4585E+00
  0.4620E+00
  0.4704E+00
  0.4791E+00
  0.4856E+00
  0.4907E+00
  0.5091E+00
  0.5732E+00
  0.6967E+00
  0.1037E+01
  0.1063E+01
  0.1063E+01
  0.1063E+01
  0.1063E+01
  0.1061E+01
  0.1058E+01
  0.1049E+01
  0.1035E+01
  0.1012E+01
  0.9827E+00
  0.9495E+00
  0.9145E+00
  0.8792E+00
  0.8442E+00
  0.8100E+00
  0.7765E+00
  0.7440E+00
  0.7125E+00
  0.6820E+00
  0.6527E+00
  0.6244E+00
  0.5972E+00
  0.5711E+00
  0.5460E+00
  0.5219E+00
  0.4987E+00
  0.4763E+00
  0.4549E+00
  0.4342E+00
  0.4141E+00
  0.3940E+00
  0.3749E+00
  0.3634E+00
  0.3594E+00
  0.3681E+00
  0.3946E+00
  0.4341E+00
  0.4853E+00
  0.5363E+00
  0.5683E+00
  0.5816E+00
  0.5938E+00
  0.6087E+00
  0.6173E+00
  0.6102E+00
  0.5685E+00
  0.5122E+00
  0.4746E+00
  0.4642E+00
  0.4625E+00
  0.4657E+00
  0.4726E+00
  0.4797E+00
  0.4851E+00
  0.4882E+00
  0.4914E+00
  0.5000E+00
  0.5295E+00
  0.5986E+00
  0.9039E+00
  0.1042E+01
  0.1042E+01
  0.1042E+01
  0.1042E+01
  0.1041E+01
  0.1037E+01
  0.1029E+01
  0.1015E+01
  0.9940E+00
  0.9663E+00
  0.9342E+00
  0.8999E+00
  0.8650E+00
  0.8303E+00
  0.7962E+00
  0.7630E+00
  0.7306E+00
  0.6994E+00
  0.6691E+00
  0.6401E+00
  0.6121E+00
  0.5852E+00
  0.5592E+00
  0.5342E+00
  0.5101E+00
  0.4870E+00
  0.4647E+00
  0.4430E+00
  0.4217E+00
  0.4016E+00
  0.3847E+00
  0.3725E+00
  0.3680E+00
  0.3772E+00
  0.4051E+00
  0.4464E+00
  0.4925E+00
  0.5362E+00
  0.5710E+00
  0.5912E+00
  0.6021E+00
  0.6102E+00
  0.6123E+00
  0.6056E+00
  0.5685E+00
  0.5148E+00
  0.4791E+00
  0.4694E+00
  0.4675E+00
  0.4700E+00
  0.4753E+00
  0.4808E+00
  0.4849E+00
  0.4870E+00
  0.4893E+00
  0.4935E+00
  0.4974E+00
  0.4969E+00
  0.4857E+00
  0.6356E+00
  0.1034E+01
  0.1034E+01
  0.1034E+01
  0.1034E+01
  0.1033E+01
  0.1030E+01
  0.1024E+01
  0.1011E+01
  0.9911E+00
  0.9639E+00
  0.9320E+00
  0.8978E+00
  0.8628E+00
  0.8279E+00
  0.7936E+00
  0.7600E+00
  0.7273E+00
  0.6956E+00
  0.6648E+00
  0.6350E+00
  0.6064E+00
  0.5788E+00
  0.5524E+00
  0.5270E+00
  0.5026E+00
  0.4792E+00
  0.4569E+00
  0.4357E+00
  0.4165E+00
  0.3994E+00
  0.3855E+00
  0.3815E+00
  0.3912E+00
  0.4191E+00
  0.4604E+00
  0.5077E+00
  0.5461E+00
  0.5705E+00
  0.5893E+00
  0.6071E+00
  0.6193E+00
  0.6184E+00
  0.6070E+00
  0.5679E+00
  0.5161E+00
  0.4810E+00
  0.4731E+00
  0.4720E+00
  0.4742E+00
  0.4785E+00
  0.4826E+00
  0.4854E+00
  0.4863E+00
  0.4875E+00
  0.4911E+00
  0.4946E+00
  0.4897E+00
  0.4525E+00
  0.3773E+00
  0.4165E+00
  0.1034E+01
  0.1034E+01
  0.1034E+01
  0.1034E+01
  0.1033E+01
  0.1030E+01
  0.1024E+01
  0.1013E+01
  0.9930E+00
  0.9664E+00
  0.9346E+00
  0.9002E+00
  0.8649E+00
  0.8297E+00
  0.7951E+00
  0.7614E+00
  0.7285E+00
  0.6966E+00
  0.6657E+00
  0.6357E+00
  0.6068E+00
  0.5789E+00
  0.5521E+00
  0.5264E+00
  0.5019E+00
  0.4784E+00
  0.4562E+00
  0.4355E+00
  0.4172E+00
  0.4026E+00
  0.3995E+00
  0.4099E+00
  0.4385E+00
  0.4778E+00
  0.5204E+00
  0.5572E+00
  0.5803E+00
  0.5916E+00
  0.6047E+00
  0.6190E+00
  0.6204E+00
  0.6107E+00
  0.5693E+00
  0.5165E+00
  0.4820E+00
  0.4745E+00
  0.4745E+00
  0.4770E+00
  0.4810E+00
  0.4846E+00
  0.4866E+00
  0.4866E+00
  0.4867E+00
  0.4892E+00
  0.4926E+00
  0.4892E+00
  0.4566E+00
  0.3916E+00
  0.3150E+00
  0.3027E+00
  0.1036E+01
  0.1036E+01
  0.1035E+01
  0.1035E+01
  0.1035E+01
  0.1032E+01
  0.1027E+01
  0.1016E+01
  0.9980E+00
  0.9722E+00
  0.9409E+00
  0.9067E+00
  0.8713E+00
  0.8359E+00
  0.8010E+00
  0.7669E+00
  0.7335E+00
  0.7011E+00
  0.6697E+00
  0.6393E+00
  0.6099E+00
  0.5816E+00
  0.5544E+00
  0.5284E+00
  0.5035E+00
  0.4799E+00
  0.4581E+00
  0.4389E+00
  0.4244E+00
  0.4231E+00
  0.4339E+00
  0.4618E+00
  0.4990E+00
  0.5365E+00
  0.5653E+00
  0.5857E+00
  0.6006E+00
  0.6099E+00
  0.6180E+00
  0.6203E+00
  0.6103E+00
  0.5684E+00
  0.5157E+00
  0.4816E+00
  0.4748E+00
  0.4752E+00
  0.4781E+00
  0.4822E+00
  0.4857E+00
  0.4873E+00
  0.4871E+00
  0.4868E+00
  0.4884E+00
  0.4913E+00
  0.4883E+00
  0.4579E+00
  0.3947E+00
  0.3286E+00
  0.2710E+00
  0.2445E+00
  0.1039E+01
  0.1039E+01
  0.1039E+01
  0.1038E+01
  0.1038E+01
  0.1036E+01
  0.1031E+01
  0.1021E+01
  0.1004E+01
  0.9793E+00
  0.9486E+00
  0.9147E+00
  0.8794E+00
  0.8438E+00
  0.8087E+00
  0.7740E+00
  0.7401E+00
  0.7070E+00
  0.6749E+00
  0.6439E+00
  0.6140E+00
  0.5854E+00
  0.5580E+00
  0.5320E+00
  0.5074E+00
  0.4846E+00
  0.4649E+00
  0.4517E+00
  0.4514E+00
  0.4625E+00
  0.4882E+00
  0.5211E+00
  0.5532E+00
  0.5771E+00
  0.5922E+00
  0.6041E+00
  0.6166E+00
  0.6252E+00
  0.6223E+00
  0.6093E+00
  0.5655E+00
  0.5123E+00
  0.4798E+00
  0.4730E+00
  0.4746E+00
  0.4782E+00
  0.4825E+00
  0.4861E+00
  0.4875E+00
  0.4873E+00
  0.4871E+00
  0.4882E+00
  0.4906E+00
  0.4878E+00
  0.4591E+00
  0.3972E+00
  0.3314E+00
  0.2769E+00
  0.2372E+00
  0.2164E+00
  0.1042E+01
  0.1042E+01
  0.1042E+01
  0.1042E+01
  0.1041E+01
  0.1039E+01
  0.1035E+01
  0.1026E+01
  0.1010E+01
  0.9862E+00
  0.9561E+00
  0.9223E+00
  0.8869E+00
  0.8510E+00
  0.8152E+00
  0.7798E+00
  0.7453E+00
  0.7117E+00
  0.6792E+00
  0.6478E+00
  0.6178E+00
  0.5892E+00
  0.5622E+00
  0.5369E+00
  0.5139E+00
  0.4947E+00
  0.4825E+00
  0.4827E+00
  0.4932E+00
  0.5157E+00
  0.5432E+00
  0.5691E+00
  0.5885E+00
  0.6020E+00
  0.6116E+00
  0.6206E+00
  0.6297E+00
  0.6284E+00
  0.6139E+00
  0.5655E+00
  0.5090E+00
  0.4749E+00
  0.4687E+00
  0.4721E+00
  0.4770E+00
  0.4822E+00
  0.4860E+00
  0.4874E+00
  0.4873E+00
  0.4871E+00
  0.4880E+00
  0.4901E+00
  0.4873E+00
  0.4593E+00
  0.3983E+00
  0.3334E+00
  0.2792E+00
  0.2397E+00
  0.2153E+00
  0.2046E+00
  0.1044E+01
  0.1044E+01
  0.1044E+01
  0.1044E+01
  0.1043E+01
  0.1042E+01
  0.1038E+01
  0.1030E+01
  0.1015E+01
  0.9919E+00
  0.9623E+00
  0.9285E+00
  0.8926E+00
  0.8561E+00
  0.8197E+00
  0.7840E+00
  0.7491E+00
  0.7152E+00
  0.6824E+00
  0.6511E+00
  0.6214E+00
  0.5935E+00
  0.5677E+00
  0.5446E+00
  0.5258E+00
  0.5142E+00
  0.5145E+00
  0.5238E+00
  0.5424E+00
  0.5647E+00
  0.5853E+00
  0.6009E+00
  0.6121E+00
  0.6210E+00
  0.6287E+00
  0.6354E+00
  0.6336E+00
  0.6205E+00
  0.5719E+00
  0.5102E+00
  0.4706E+00
  0.4635E+00
  0.4675E+00
  0.4740E+00
  0.4807E+00
  0.4855E+00
  0.4873E+00
  0.4873E+00
  0.4870E+00
  0.4878E+00
  0.4896E+00
  0.4868E+00
  0.4593E+00
  0.3987E+00
  0.3342E+00
  0.2805E+00
  0.2412E+00
  0.2164E+00
  0.2046E+00
  0.2009E+00
  0.1046E+01
  0.1046E+01
  0.1046E+01
  0.1046E+01
  0.1046E+01
  0.1044E+01
  0.1041E+01
  0.1034E+01
  0.1019E+01
  0.9972E+00
  0.9680E+00
  0.9341E+00
  0.8979E+00
  0.8610E+00
  0.8242E+00
  0.7880E+00
  0.7528E+00
  0.7187E+00
  0.6861E+00
  0.6553E+00
  0.6265E+00
  0.6002E+00
  0.5769E+00
  0.5582E+00
  0.5465E+00
  0.5461E+00
  0.5536E+00
  0.5686E+00
  0.5863E+00
  0.6025E+00
  0.6150E+00
  0.6243E+00
  0.6320E+00
  0.6386E+00
  0.6431E+00
  0.6399E+00
  0.6265E+00
  0.5799E+00
  0.5157E+00
  0.4699E+00
  0.4595E+00
  0.4625E+00
  0.4699E+00
  0.4783E+00
  0.4843E+00
  0.4870E+00
  0.4872E+00
  0.4870E+00
  0.4878E+00
  0.4894E+00
  0.4864E+00
  0.4591E+00
  0.3989E+00
  0.3348E+00
  0.2813E+00
  0.2421E+00
  0.2172E+00
  0.2050E+00
  0.2010E+00
  0.2001E+00
  0.1048E+01
  0.1048E+01
  0.1048E+01
  0.1048E+01
  0.1048E+01
  0.1047E+01
  0.1044E+01
  0.1037E+01
  0.1024E+01
  0.1003E+01
  0.9741E+00
  0.9404E+00
  0.9039E+00
  0.8665E+00
  0.8292E+00
  0.7926E+00
  0.7571E+00
  0.7233E+00
  0.6915E+00
  0.6621E+00
  0.6352E+00
  0.6117E+00
  0.5929E+00
  0.5805E+00
  0.5786E+00
  0.5842E+00
  0.5957E+00
  0.6091E+00
  0.6212E+00
  0.6307E+00
  0.6386E+00
  0.6453E+00
  0.6499E+00
  0.6507E+00
  0.6458E+00
  0.6321E+00
  0.5877E+00
  0.5230E+00
  0.4725E+00
  0.4567E+00
  0.4586E+00
  0.4657E+00
  0.4753E+00
  0.4826E+00
  0.4865E+00
  0.4870E+00
  0.4869E+00
  0.4879E+00
  0.4896E+00
  0.4864E+00
  0.4587E+00
  0.3988E+00
  0.3348E+00
  0.2817E+00
  0.2427E+00
  0.2177E+00
  0.2053E+00
  0.2011E+00
  0.2001E+00
  0.2000E+00
  0.1054E+01
  0.1054E+01
  0.1054E+01
  0.1054E+01
  0.1054E+01
  0.1053E+01
  0.1050E+01
  0.1044E+01
  0.1031E+01
  0.1011E+01
  0.9823E+00
  0.9484E+00
  0.9114E+00
  0.8734E+00
  0.8357E+00
  0.7990E+00
  0.7639E+00
  0.7310E+00
  0.7006E+00
  0.6731E+00
  0.6493E+00
  0.6301E+00
  0.6173E+00
  0.6130E+00
  0.6162E+00
  0.6245E+00
  0.6337E+00
  0.6421E+00
  0.6490E+00
  0.6551E+00
  0.6596E+00
  0.6607E+00
  0.6573E+00
  0.6506E+00
  0.6344E+00
  0.5906E+00
  0.5289E+00
  0.4766E+00
  0.4554E+00
  0.4561E+00
  0.4621E+00
  0.4725E+00
  0.4808E+00
  0.4854E+00
  0.4867E+00
  0.4868E+00
  0.4880E+00
  0.4900E+00
  0.4868E+00
  0.4589E+00
  0.3987E+00
  0.3348E+00
  0.2817E+00
  0.2430E+00
  0.2180E+00
  0.2055E+00
  0.2011E+00
  0.2002E+00
  0.2000E+00
  0.2000E+00
  0.1063E+01
  0.1063E+01
  0.1063E+01
  0.1063E+01
  0.1063E+01
  0.1062E+01
  0.1059E+01
  0.1054E+01
  0.1042E+01
  0.1021E+01
  0.9930E+00
  0.9583E+00
  0.9204E+00
  0.8818E+00
  0.8438E+00
  0.8073E+00
  0.7732E+00
  0.7419E+00
  0.7137E+00
  0.6893E+00
  0.6697E+00
  0.6559E+00
  0.6490E+00
  0.6500E+00
  0.6544E+00
  0.6606E+00
  0.6660E+00
  0.6698E+00
  0.6724E+00
  0.6718E+00
  0.6680E+00
  0.6618E+00
  0.6518E+00
  0.6292E+00
  0.5850E+00
  0.5291E+00
  0.4794E+00
  0.4554E+00
  0.4548E+00
  0.4596E+00
  0.4705E+00
  0.4798E+00
  0.4849E+00
  0.4865E+00
  0.4869E+00
  0.4884E+00
  0.4907E+00
  0.4873E+00
  0.4592E+00
  0.3989E+00
  0.3348E+00
  0.2817E+00
  0.2430E+00
  0.2182E+00
  0.2056E+00
  0.2012E+00
  0.2002E+00
  0.2000E+00
  0.2000E+00
  0.2000E+00
  0.1071E+01
  0.1071E+01
  0.1071E+01
  0.1071E+01
  0.1071E+01
  0.1070E+01
  0.1067E+01
  0.1062E+01
  0.1050E+01
  0.1030E+01
  0.1002E+01
  0.9664E+00
  0.9280E+00
  0.8888E+00
  0.8511E+00
  0.8160E+00
  0.7840E+00
  0.7554E+00
  0.7307E+00
  0.7106E+00
  0.6960E+00
  0.6870E+00
  0.6841E+00
  0.6858E+00
  0.6885E+00
  0.6895E+00
  0.6880E+00
  0.6843E+00
  0.6787E+00
  0.6722E+00
  0.6626E+00
  0.6449E+00
  0.6143E+00
  0.5713E+00
  0.5221E+00
  0.4783E+00
  0.4561E+00
  0.4546E+00
  0.4582E+00
  0.4692E+00
  0.4792E+00
  0.4852E+00
  0.4871E+00
  0.4876E+00
  0.4894E+00
  0.4916E+00
  0.4879E+00
  0.4591E+00
  0.3986E+00
  0.3347E+00
  0.2817E+00
  0.2429E+00
  0.2182E+00
  0.2057E+00
  0.2012E+00
  0.2002E+00
  0.2000E+00
  0.2000E+00
  0.2000E+00
  0.2000E+00
  0.1073E+01
  0.1073E+01
  0.1073E+01
  0.1073E+01