# vtk DataFile Version 3.0
vtk output
ASCII
DATASET RECTILINEAR_GRID
DIMENSIONS          61          61 1
X_COORDINATES    61 double
  0.0000E+00
  0.1667E+00
  0.3333E+00
  0.5000E+00
  0.6667E+00
  0.8333E+00
  0.1000E+01
  0.1167E+01
  0.1333E+01
  0.1500E+01
  0.1667E+01
  0.1833E+01
  0.2000E+01
  0.2167E+01
  0.2333E+01
  0.2500E+01
  0.2667E+01
  0.2833E+01
  0.3000E+01
  0.3167E+01
  0.3333E+01
  0.3500E+01
  0.3667E+01
  0.3833E+01
  0.4000E+01
  0.4167E+01
  0.4333E+01
  0.4500E+01
  0.4667E+01
  0.4833E+01
  0.5000E+01
  0.5167E+01
  0.5333E+01
  0.5500E+01
  0.5667E+01
  0.5833E+01
  0.6000E+01
  0.6167E+01
  0.6333E+01
  0.6500E+01
  0.6667E+01
  0.6833E+01
  0.7000E+01
  0.7167E+01
  0.7333E+01
  0.7500E+01
  0.7667E+01
  0.7833E+01
  0.8000E+01
  0.8167E+01
  0.8333E+01
  0.8500E+01
  0.8667E+01
  0.8833E+01
  0.9000E+01
  0.9167E+01
  0.9333E+01
  0.9500E+01
  0.9667E+01
  0.9833E+01
  0.1000E+02
Y_COORDINATES    61 double
  0.0000E+00
  0.1667E+00
  0.3333E+00
  0.5000E+00
  0.6667E+00
  0.8333E+00
  0.1000E+01
  0.1167E+01
  0.1333E+01
  0.1500E+01
  0.1667E+01
  0.1833E+01
  0.2000E+01
  0.2167E+01
  0.2333E+01
  0.2500E+01
  0.2667E+01
  0.2833E+01
  0.3000E+01
  0.3167E+01
  0.3333E+01
  0.3500E+01
  0.3667E+01
  0.3833E+01
  0.4000E+01
  0.4167E+01
  0.4333E+01
  0.4500E+01
  0.4667E+01
  0.4833E+01
  0.5000E+01
  0.5167E+01
  0.5333E+01
  0.5500E+01
  0.5667E+01
  0.5833E+01
  0.6000E+01
  0.6167E+01
  0.6333E+01
  0.6500E+01
  0.6667E+01
  0.6833E+01
  0.7000E+01
  0.7167E+01
  0.7333E+01
  0.7500E+01
  0.7667E+01
  0.7833E+01
  0.8000E+01
  0.8167E+01
  0.8333E+01
  0.8500E+01
  0.8667E+01
  0.8833E+01
  0.9000E+01
  0.9167E+01
  0.9333E+01
  0.9500E+01
  0.9667E+01
  0.9833E+01
  0.1000E+02
Z_COORDINATES 1 double
0
CELL_DATA                 3600
FIELD FieldData 4
density 1                 3600 double
  0.1843E+01
  0.1843E+01
  0.1843E+01
  0.1843E+01
  0.1843E+01
  0.1843E+01
  0.1843E+01
  0.1841E+01
  0.1837E+01
  0.1825E+01
  0.1801E+01
  0.1762E+01
  0.1708E+01
  0.1647E+01
  0.1582E+01
  0.1517E+01
  0.1453E+01
  0.1390E+01
  0.1330E+01
  0.1273E+01
  0.1218E+01
  0.1165E+01
  0.1115E+01
  0.1068E+01
  0.1023E+01
  0.9801E+00
  0.9395E+00
  0.9009E+00
  0.8643E+00
  0.8295E+00
  0.7964E+00
  0.7649E+00
  0.7351E+00
  0.7070E+00
  0.6806E+00
  0.6560E+00
  0.6333E+00
  0.6126E+00
  0.5952E+00
  0.5820E+00
  0.5770E+00
  0.5783E+00
  0.5857E+00
  0.5969E+00
  0.6105E+00
  0.6239E+00
  0.6354E+00
  0.6453E+00
  0.6568E+00
  0.6639E+00
  0.6609E+00
  0.6342E+00
  0.5851E+00
  0.5380E+00
  0.5114E+00
  0.5100E+00
  0.5230E+00
  0.5977E+00
  0.8305E+00
  0.1038E+01
  0.1841E+01
  0.1841E+01
  0.1841E+01
  0.1841E+01
  0.1841E+01
  0.1841E+01
  0.1841E+01
  0.1839E+01
  0.1835E+01
  0.1823E+01
  0.1799E+01
  0.1760E+01
  0.1707E+01
  0.1645E+01
  0.1580E+01
  0.1515E+01
  0.1451E+01
  0.1389E+01
  0.1329E+01
  0.1271E+01
  0.1216E+01
  0.1164E+01
  0.1114E+01
  0.1066E+01
  0.1021E+01
  0.9788E+00
  0.9382E+00
  0.8996E+00
  0.8630E+00
  0.8281E+00
  0.7950E+00
  0.7636E+00
  0.7337E+00
  0.7056E+00
  0.6792E+00
  0.6545E+00
  0.6318E+00
  0.6111E+00
  0.5936E+00
  0.5805E+00
  0.5751E+00
  0.5761E+00
  0.5830E+00
  0.5943E+00
  0.6079E+00
  0.6215E+00
  0.6334E+00
  0.6451E+00
  0.6586E+00
  0.6665E+00
  0.6633E+00
  0.6353E+00
  0.5846E+00
  0.5369E+00
  0.5110E+00
  0.5100E+00
  0.5226E+00
  0.5953E+00
  0.8204E+00
  0.1035E+01
  0.1837E+01
  0.1837E+01
  0.1837E+01
  0.1837E+01
  0.1837E+01
  0.1837E+01
  0.1837E+01
  0.1835E+01
  0.1831E+01
  0.1820E+01
  0.1796E+01
  0.1757E+01
  0.1704E+01
  0.1643E+01
  0.1578E+01
  0.1513E+01
  0.1449E+01
  0.1386E+01
  0.1326E+01
  0.1269E+01
  0.1214E+01
  0.1161E+01
  0.1111E+01
  0.1064E+01
  0.1019E+01
  0.9761E+00
  0.9355E+00
  0.8969E+00
  0.8603E+00
  0.8254E+00
  0.7923E+00
  0.7608E+00
  0.7309E+00
  0.7027E+00
  0.6762E+00
  0.6515E+00
  0.6287E+00
  0.6079E+00
  0.5903E+00
  0.5769E+00
  0.5709E+00
  0.5717E+00
  0.5780E+00
  0.5890E+00
  0.6025E+00
  0.6166E+00
  0.6301E+00
  0.6449E+00
  0.6618E+00
  0.6713E+00
  0.6675E+00
  0.6361E+00
  0.5826E+00
  0.5341E+00
  0.5098E+00
  0.5095E+00
  0.5216E+00
  0.5881E+00
  0.8143E+00
  0.1056E+01
  0.1831E+01
  0.1831E+01
  0.1831E+01
  0.1831E+01
  0.1831E+01
  0.1831E+01
  0.1831E+01
  0.1829E+01
  0.1825E+01
  0.1814E+01
  0.1791E+01
  0.1752E+01
  0.1699E+01
  0.1638E+01
  0.1573E+01
  0.1508E+01
  0.1444E+01
  0.1382E+01
  0.1322E+01
  0.1265E+01
  0.1210E+01
  0.1157E+01
  0.1107E+01
  0.1060E+01
  0.1015E+01
  0.9721E+00
  0.9314E+00
  0.8928E+00
  0.8561E+00
  0.8212E+00
  0.7880E+00
  0.7565E+00
  0.7265E+00
  0.6982E+00
  0.6716E+00
  0.6468E+00
  0.6238E+00
  0.6029E+00
  0.5850E+00
  0.5714E+00
  0.5642E+00
  0.5646E+00
  0.5702E+00
  0.5806E+00
  0.5939E+00
  0.6089E+00
  0.6249E+00
  0.6439E+00
  0.6662E+00
  0.6773E+00
  0.6720E+00
  0.6355E+00
  0.5789E+00
  0.5300E+00
  0.5080E+00
  0.5088E+00
  0.5208E+00
  0.5803E+00
  0.7901E+00
  0.1074E+01
  0.1823E+01
  0.1823E+01
  0.1823E+01
  0.1823E+01
  0.1823E+01
  0.1823E+01
  0.1822E+01
  0.1821E+01
  0.1817E+01
  0.1806E+01
  0.1783E+01
  0.1745E+01
  0.1693E+01
  0.1632E+01
  0.1567E+01
  0.1503E+01
  0.1439E+01
  0.1377E+01
  0.1317E+01
  0.1259E+01
  0.1204E+01
  0.1151E+01
  0.1102E+01
  0.1054E+01
  0.1009E+01
  0.9664E+00
  0.9257E+00
  0.8870E+00
  0.8503E+00
  0.8153E+00
  0.7820E+00
  0.7503E+00
  0.7202E+00
  0.6917E+00
  0.6649E+00
  0.6399E+00
  0.6166E+00
  0.5954E+00
  0.5771E+00
  0.5631E+00
  0.5546E+00
  0.5542E+00
  0.5587E+00
  0.5684E+00
  0.5818E+00
  0.5980E+00
  0.6174E+00
  0.6422E+00
  0.6714E+00
  0.6826E+00
  0.6747E+00
  0.6312E+00
  0.5727E+00
  0.5244E+00
  0.5062E+00
  0.5081E+00
  0.5206E+00
  0.5706E+00
  0.7637E+00
  0.1082E+01
  0.1812E+01
  0.1812E+01
  0.1812E+01
  0.1812E+01
  0.1812E+01
  0.1811E+01
  0.1811E+01
  0.1810E+01
  0.1806E+01
  0.1795E+01
  0.1773E+01
  0.1736E+01
  0.1684E+01
  0.1624E+01
  0.1559E+01
  0.1495E+01
  0.1431E+01
  0.1369E+01
  0.1309E+01
  0.1251E+01
  0.1196E+01
  0.1144E+01
  0.1094E+01
  0.1047E+01
  0.1001E+01
  0.9586E+00
  0.9179E+00
  0.8791E+00
  0.8422E+00
  0.8070E+00
  0.7736E+00
  0.7417E+00
  0.7113E+00
  0.6826E+00
  0.6555E+00
  0.6300E+00
  0.6063E+00
  0.5847E+00
  0.5658E+00
  0.5512E+00
  0.5411E+00
  0.5400E+00
  0.5431E+00
  0.5522E+00
  0.5660E+00
  0.5844E+00
  0.6089E+00
  0.6415E+00
  0.6766E+00
  0.6855E+00
  0.6734E+00
  0.6231E+00
  0.5636E+00
  0.5172E+00
  0.5045E+00
  0.5079E+00
  0.5211E+00
  0.5621E+00
  0.7249E+00
  0.1068E+01
  0.1797E+01
  0.1797E+01
  0.1797E+01
  0.1797E+01
  0.1797E+01
  0.1797E+01
  0.1797E+01
  0.1796E+01
  0.1792E+01
  0.1782E+01
  0.1760E+01
  0.1724E+01
  0.1673E+01
  0.1613E+01
  0.1549E+01
  0.1484E+01
  0.1421E+01
  0.1359E+01
  0.1299E+01
  0.1241E+01
  0.1186E+01
  0.1134E+01
  0.1084E+01
  0.1036E+01
  0.9911E+00
  0.9481E+00
  0.9072E+00
  0.8682E+00
  0.8311E+00
  0.7957E+00
  0.7619E+00
  0.7297E+00
  0.6990E+00
  0.6698E+00
  0.6423E+00
  0.6164E+00
  0.5922E+00
  0.5700E+00
  0.5504E+00
  0.5349E+00
  0.5234E+00
  0.5216E+00
  0.5237E+00
  0.5324E+00
  0.5476E+00
  0.5708E+00
  0.6037E+00
  0.6453E+00
  0.6819E+00
  0.6860E+00
  0.6659E+00
  0.6099E+00
  0.5507E+00
  0.5092E+00
  0.5021E+00
  0.5079E+00
  0.5226E+00
  0.5564E+00
  0.6834E+00
  0.1080E+01
  0.1778E+01
  0.1778E+01
  0.1778E+01
  0.1778E+01
  0.1778E+01
  0.1778E+01
  0.1778E+01
  0.1777E+01
  0.1773E+01
  0.1764E+01
  0.1743E+01
  0.1708E+01
  0.1658E+01
  0.1598E+01
  0.1535E+01
  0.1470E+01
  0.1407E+01
  0.1345E+01
  0.1285E+01
  0.1228E+01
  0.1173E+01
  0.1120E+01
  0.1070E+01
  0.1022E+01
  0.9769E+00
  0.9337E+00
  0.8926E+00
  0.8533E+00
  0.8159E+00
  0.7802E+00
  0.7460E+00
  0.7135E+00
  0.6824E+00
  0.6528E+00
  0.6248E+00
  0.5985E+00
  0.5739E+00
  0.5512E+00
  0.5310E+00
  0.5146E+00
  0.5018E+00
  0.4997E+00
  0.5014E+00
  0.5104E+00
  0.5299E+00
  0.5623E+00
  0.6058E+00
  0.6546E+00
  0.6837E+00
  0.6820E+00
  0.6507E+00
  0.5917E+00
  0.5349E+00
  0.5015E+00
  0.4993E+00
  0.5084E+00
  0.5250E+00
  0.5545E+00
  0.6469E+00
  0.1040E+01
  0.1753E+01
  0.1753E+01
  0.1753E+01
  0.1753E+01
  0.1753E+01
  0.1753E+01
  0.1753E+01
  0.1752E+01
  0.1749E+01
  0.1740E+01
  0.1720E+01
  0.1686E+01
  0.1638E+01
  0.1579E+01
  0.1516E+01
  0.1452E+01
  0.1388E+01
  0.1326E+01
  0.1267E+01
  0.1209E+01
  0.1154E+01
  0.1101E+01
  0.1051E+01
  0.1003E+01
  0.9579E+00
  0.9145E+00
  0.8732E+00
  0.8337E+00
  0.7960E+00
  0.7599E+00
  0.7255E+00
  0.6926E+00
  0.6613E+00
  0.6314E+00
  0.6032E+00
  0.5766E+00
  0.5517E+00
  0.5288E+00
  0.5081E+00
  0.4911E+00
  0.4776E+00
  0.4756E+00
  0.4780E+00
  0.4899E+00
  0.5196E+00
  0.5651E+00
  0.6177E+00
  0.6662E+00
  0.6802E+00
  0.6719E+00
  0.6291E+00
  0.5696E+00
  0.5170E+00
  0.4948E+00
  0.4965E+00
  0.5093E+00
  0.5280E+00
  0.5576E+00
  0.6168E+00
  0.9242E+00
  0.1721E+01
  0.1721E+01
  0.1721E+01
  0.1721E+01
  0.1721E+01
  0.1721E+01
  0.1721E+01
  0.1720E+01
  0.1717E+01
  0.1709E+01
  0.1690E+01
  0.1658E+01
  0.1610E+01
  0.1553E+01
  0.1490E+01
  0.1427E+01
  0.1364E+01
  0.1302E+01
  0.1242E+01
  0.1185E+01
  0.1130E+01
  0.1077E+01
  0.1027E+01
  0.9792E+00
  0.9336E+00
  0.8901E+00
  0.8486E+00
  0.8090E+00
  0.7712E+00
  0.7351E+00
  0.7005E+00
  0.6676E+00
  0.6362E+00
  0.6063E+00
  0.5781E+00
  0.5516E+00
  0.5268E+00
  0.5038E+00
  0.4831E+00
  0.4656E+00
  0.4525E+00
  0.4514E+00
  0.4565E+00
  0.4785E+00
  0.5227E+00
  0.5782E+00
  0.6332E+00
  0.6703E+00
  0.6729E+00
  0.6551E+00
  0.6037E+00
  0.5444E+00
  0.4991E+00
  0.4896E+00
  0.4950E+00
  0.5106E+00
  0.5320E+00
  0.5621E+00
  0.5949E+00
  0.7802E+00
  0.1680E+01
  0.1680E+01
  0.1680E+01
  0.1680E+01
  0.1680E+01
  0.1680E+01
  0.1680E+01
  0.1679E+01
  0.1677E+01
  0.1669E+01
  0.1652E+01
  0.1621E+01
  0.1576E+01
  0.1519E+01
  0.1458E+01
  0.1395E+01
  0.1332E+01
  0.1271E+01
  0.1212E+01
  0.1155E+01
  0.1100E+01
  0.1047E+01
  0.9972E+00
  0.9495E+00
  0.9041E+00
  0.8607E+00
  0.8194E+00
  0.7799E+00
  0.7423E+00
  0.7064E+00
  0.6721E+00
  0.6394E+00
  0.6083E+00
  0.5788E+00
  0.5510E+00
  0.5248E+00
  0.5004E+00
  0.4777E+00
  0.4572E+00
  0.4387E+00
  0.4290E+00
  0.4301E+00
  0.4435E+00
  0.4818E+00
  0.5385E+00
  0.5978E+00
  0.6479E+00
  0.6676E+00
  0.6635E+00
  0.6318E+00
  0.5744E+00
  0.5173E+00
  0.4860E+00
  0.4852E+00
  0.4952E+00
  0.5131E+00
  0.5373E+00
  0.5640E+00
  0.5689E+00
  0.6471E+00
  0.1630E+01
  0.1630E+01
  0.1630E+01
  0.1630E+01
  0.1630E+01
  0.1630E+01
  0.1630E+01
  0.1630E+01
  0.1627E+01
  0.1621E+01
  0.1605E+01
  0.1576E+01
  0.1533E+01
  0.1478E+01
  0.1418E+01
  0.1356E+01
  0.1294E+01
  0.1234E+01
  0.1175E+01
  0.1118E+01
  0.1064E+01
  0.1012E+01
  0.9626E+00
  0.9154E+00
  0.8704E+00
  0.8275E+00
  0.7866E+00
  0.7477E+00
  0.7106E+00
  0.6753E+00
  0.6416E+00
  0.6095E+00
  0.5791E+00
  0.5502E+00
  0.5231E+00
  0.4976E+00
  0.4738E+00
  0.4514E+00
  0.4311E+00
  0.4126E+00
  0.4096E+00
  0.4161E+00
  0.4468E+00
  0.5002E+00
  0.5629E+00
  0.6185E+00
  0.6567E+00
  0.6615E+00
  0.6492E+00
  0.6019E+00
  0.5417E+00
  0.4923E+00
  0.4791E+00
  0.4832E+00
  0.4973E+00
  0.5178E+00
  0.5426E+00
  0.5583E+00
  0.5303E+00
  0.5244E+00
  0.1573E+01
  0.1573E+01
  0.1573E+01
  0.1573E+01
  0.1573E+01
  0.1573E+01
  0.1573E+01
  0.1573E+01
  0.1571E+01
  0.1565E+01
  0.1551E+01
  0.1524E+01
  0.1483E+01
  0.1430E+01
  0.1372E+01
  0.1311E+01
  0.1250E+01
  0.1191E+01
  0.1133E+01
  0.1078E+01
  0.1024E+01
  0.9734E+00
  0.9247E+00
  0.8783E+00
  0.8341E+00
  0.7921E+00
  0.7520E+00
  0.7140E+00
  0.6777E+00
  0.6432E+00
  0.6104E+00
  0.5793E+00
  0.5497E+00
  0.5217E+00
  0.4954E+00
  0.4708E+00
  0.4475E+00
  0.4259E+00
  0.4045E+00
  0.3930E+00
  0.3963E+00
  0.4189E+00
  0.4669E+00
  0.5298E+00
  0.5891E+00
  0.6365E+00
  0.6573E+00
  0.6541E+00
  0.6248E+00
  0.5668E+00
  0.5082E+00
  0.4760E+00
  0.4751E+00
  0.4843E+00
  0.5015E+00
  0.5245E+00
  0.5447E+00
  0.5441E+00
  0.4804E+00
  0.4160E+00
  0.1511E+01
  0.1511E+01
  0.1511E+01
  0.1511E+01
  0.1511E+01
  0.1511E+01
  0.1511E+01
  0.1510E+01
  0.1509E+01
  0.1504E+01
  0.1491E+01
  0.1467E+01
  0.1428E+01
  0.1378E+01
  0.1322E+01
  0.1263E+01
  0.1204E+01
  0.1146E+01
  0.1089E+01
  0.1035E+01
  0.9827E+00
  0.9328E+00
  0.8852E+00
  0.8400E+00
  0.7969E+00
  0.7560E+00
  0.7171E+00
  0.6801E+00
  0.6449E+00
  0.6115E+00
  0.5797E+00
  0.5496E+00
  0.5211E+00
  0.4941E+00
  0.4688E+00
  0.4449E+00
  0.4223E+00
  0.4001E+00
  0.3818E+00
  0.3820E+00
  0.3985E+00
  0.4401E+00
  0.5000E+00
  0.5622E+00
  0.6138E+00
  0.6483E+00
  0.6519E+00
  0.6385E+00
  0.5887E+00
  0.5271E+00
  0.4799E+00
  0.4695E+00
  0.4745E+00
  0.4887E+00
  0.5087E+00
  0.5305E+00
  0.5405E+00
  0.5162E+00
  0.4135E+00
  0.3343E+00
  0.1446E+01
  0.1446E+01
  0.1446E+01
  0.1446E+01
  0.1446E+01
  0.1446E+01
  0.1446E+01
  0.1446E+01
  0.1444E+01
  0.1440E+01
  0.1429E+01
  0.1407E+01
  0.1371E+01
  0.1324E+01
  0.1270E+01
  0.1213E+01
  0.1155E+01
  0.1099E+01
  0.1044E+01
  0.9913E+00
  0.9405E+00
  0.8920E+00
  0.8458E+00
  0.8019E+00
  0.7601E+00
  0.7205E+00
  0.6828E+00
  0.6470E+00
  0.6131E+00
  0.5808E+00
  0.5502E+00
  0.5211E+00
  0.4936E+00
  0.4677E+00
  0.4433E+00
  0.4201E+00
  0.3975E+00
  0.3753E+00
  0.3730E+00
  0.3840E+00
  0.4200E+00
  0.4749E+00
  0.5364E+00
  0.5909E+00
  0.6338E+00
  0.6475E+00
  0.6416E+00
  0.6045E+00
  0.5431E+00
  0.4884E+00
  0.4659E+00
  0.4679E+00
  0.4787E+00
  0.4958E+00
  0.5167E+00
  0.5316E+00
  0.5262E+00
  0.4609E+00
  0.3497E+00
  0.2762E+00
  0.1381E+01
  0.1381E+01
  0.1381E+01
  0.1381E+01
  0.1381E+01
  0.1381E+01
  0.1381E+01
  0.1381E+01
  0.1380E+01
  0.1376E+01
  0.1367E+01
  0.1347E+01
  0.1314E+01
  0.1270E+01
  0.1218E+01
  0.1163E+01
  0.1107E+01
  0.1053E+01
  0.9997E+00
  0.9485E+00
  0.8993E+00
  0.8523E+00
  0.8076E+00
  0.7650E+00
  0.7247E+00
  0.6863E+00
  0.6499E+00
  0.6154E+00
  0.5827E+00
  0.5516E+00
  0.5221E+00
  0.4941E+00
  0.4677E+00
  0.4427E+00
  0.4190E+00
  0.3960E+00
  0.3719E+00
  0.3683E+00
  0.3751E+00
  0.4062E+00
  0.4570E+00
  0.5166E+00
  0.5711E+00
  0.6161E+00
  0.6391E+00
  0.6376E+00
  0.6105E+00
  0.5527E+00
  0.4952E+00
  0.4641E+00
  0.4632E+00
  0.4708E+00
  0.4859E+00
  0.5043E+00
  0.5211E+00
  0.5244E+00
  0.4912E+00
  0.3923E+00
  0.2963E+00
  0.2383E+00
  0.1318E+01
  0.1318E+01
  0.1318E+01
  0.1318E+01
  0.1318E+01
  0.1318E+01
  0.1318E+01
  0.1318E+01
  0.1317E+01
  0.1314E+01
  0.1306E+01
  0.1288E+01
  0.1259E+01
  0.1217E+01
  0.1168E+01
  0.1115E+01
  0.1061E+01
  0.1008E+01
  0.9571E+00
  0.9075E+00
  0.8599E+00
  0.8145E+00
  0.7712E+00
  0.7301E+00
  0.6910E+00
  0.6540E+00
  0.6189E+00
  0.5856E+00
  0.5540E+00
  0.5241E+00
  0.4957E+00
  0.4688E+00
  0.4432E+00
  0.4189E+00
  0.3956E+00
  0.3708E+00
  0.3657E+00
  0.3707E+00
  0.3959E+00
  0.4426E+00
  0.5008E+00
  0.5564E+00
  0.6044E+00
  0.6319E+00
  0.6328E+00
  0.6104E+00
  0.5550E+00
  0.4978E+00
  0.4634E+00
  0.4600E+00
  0.4652E+00
  0.4788E+00
  0.4953E+00
  0.5113E+00
  0.5190E+00
  0.5037E+00
  0.4290E+00
  0.3304E+00
  0.2555E+00
  0.2160E+00
  0.1259E+01
  0.1259E+01
  0.1259E+01
  0.1259E+01
  0.1259E+01
  0.1259E+01
  0.1259E+01
  0.1258E+01
  0.1258E+01
  0.1255E+01
  0.1248E+01
  0.1233E+01
  0.1206E+01
  0.1167E+01
  0.1120E+01
  0.1069E+01
  0.1018E+01
  0.9666E+00
  0.9169E+00
  0.8689E+00
  0.8229E+00
  0.7789E+00
  0.7370E+00
  0.6972E+00
  0.6595E+00
  0.6237E+00
  0.5898E+00
  0.5577E+00
  0.5272E+00
  0.4983E+00
  0.4710E+00
  0.4449E+00
  0.4200E+00
  0.3960E+00
  0.3709E+00
  0.3644E+00
  0.3686E+00
  0.3916E+00
  0.4330E+00
  0.4849E+00
  0.5394E+00
  0.5896E+00
  0.6257E+00
  0.6288E+00
  0.6101E+00
  0.5550E+00
  0.4974E+00
  0.4623E+00
  0.4580E+00
  0.4620E+00
  0.4739E+00
  0.4883E+00
  0.5032E+00
  0.5120E+00
  0.5061E+00
  0.4540E+00
  0.3617E+00
  0.2803E+00
  0.2275E+00
  0.2054E+00
  0.1203E+01
  0.1203E+01
  0.1203E+01
  0.1203E+01
  0.1203E+01
  0.1203E+01
  0.1203E+01
  0.1203E+01
  0.1202E+01
  0.1200E+01
  0.1194E+01
  0.1180E+01
  0.1156E+01
  0.1120E+01
  0.1075E+01
  0.1027E+01
  0.9769E+00
  0.9276E+00
  0.8795E+00
  0.8330E+00
  0.7883E+00
  0.7457E+00
  0.7051E+00
  0.6666E+00
  0.6301E+00
  0.5955E+00
  0.5627E+00
  0.5317E+00
  0.5022E+00
  0.4743E+00
  0.4476E+00
  0.4223E+00
  0.3975E+00
  0.3723E+00
  0.3652E+00
  0.3686E+00
  0.3869E+00
  0.4277E+00
  0.4802E+00
  0.5289E+00
  0.5729E+00
  0.6094E+00
  0.6217E+00
  0.6085E+00
  0.5560E+00
  0.4978E+00
  0.4629E+00
  0.4578E+00
  0.4605E+00
  0.4710E+00
  0.4836E+00
  0.4964E+00
  0.5057E+00
  0.5042E+00
  0.4688E+00
  0.3867E+00
  0.3040E+00
  0.2434E+00
  0.2111E+00
  0.2015E+00
  0.1151E+01
  0.1151E+01
  0.1151E+01
  0.1151E+01
  0.1151E+01
  0.1151E+01
  0.1151E+01
  0.1151E+01
  0.1150E+01
  0.1149E+01
  0.1144E+01
  0.1132E+01
  0.1110E+01
  0.1077E+01
  0.1034E+01
  0.9877E+00
  0.9396E+00
  0.8918E+00
  0.8452E+00
  0.8001E+00
  0.7568E+00
  0.7154E+00
  0.6760E+00
  0.6386E+00
  0.6032E+00
  0.5696E+00
  0.5379E+00
  0.5077E+00
  0.4790E+00
  0.4517E+00
  0.4259E+00
  0.4001E+00
  0.3756E+00
  0.3674E+00
  0.3710E+00
  0.3915E+00
  0.4275E+00
  0.4734E+00
  0.5254E+00
  0.5728E+00
  0.6065E+00
  0.6146E+00
  0.6043E+00
  0.5580E+00
  0.5003E+00
  0.4657E+00
  0.4598E+00
  0.4617E+00
  0.4701E+00
  0.4807E+00
  0.4916E+00
  0.5005E+00
  0.5013E+00
  0.4770E+00
  0.4052E+00
  0.3242E+00
  0.2595E+00
  0.2195E+00
  0.2035E+00
  0.2003E+00
  0.1105E+01
  0.1105E+01
  0.1105E+01
  0.1105E+01
  0.1105E+01
  0.1105E+01
  0.1105E+01
  0.1105E+01
  0.1104E+01
  0.1103E+01
  0.1099E+01
  0.1089E+01
  0.1069E+01
  0.1038E+01
  0.9978E+00
  0.9530E+00
  0.9065E+00
  0.8601E+00
  0.8148E+00
  0.7710E+00
  0.7289E+00
  0.6886E+00
  0.6503E+00
  0.6140E+00
  0.5794E+00
  0.5467E+00
  0.5156E+00
  0.4861E+00
  0.4582E+00
  0.4314E+00
  0.4044E+00
  0.3820E+00
  0.3722E+00
  0.3759E+00
  0.3960E+00
  0.4328E+00
  0.4796E+00
  0.5247E+00
  0.5667E+00
  0.6086E+00
  0.6191E+00
  0.6095E+00
  0.5639E+00
  0.5053E+00
  0.4699E+00
  0.4633E+00
  0.4648E+00
  0.4714E+00
  0.4795E+00
  0.4880E+00
  0.4962E+00
  0.4982E+00
  0.4807E+00
  0.4183E+00
  0.3404E+00
  0.2741E+00
  0.2289E+00
  0.2069E+00
  0.2008E+00
  0.2001E+00
  0.1067E+01
  0.1067E+01
  0.1067E+01
  0.1067E+01
  0.1067E+01
  0.1067E+01
  0.1067E+01
  0.1067E+01
  0.1067E+01
  0.1066E+01
  0.1062E+01
  0.1053E+01
  0.1036E+01
  0.1007E+01
  0.9692E+00
  0.9259E+00
  0.8807E+00
  0.8354E+00
  0.7912E+00
  0.7483E+00
  0.7071E+00
  0.6676E+00
  0.6299E+00
  0.5942E+00
  0.5602E+00
  0.5279E+00
  0.4972E+00
  0.4680E+00
  0.4394E+00
  0.4128E+00
  0.3931E+00
  0.3814E+00
  0.3849E+00
  0.4060E+00
  0.4427E+00
  0.4852E+00
  0.5286E+00
  0.5713E+00
  0.6072E+00
  0.6200E+00
  0.6132E+00
  0.5721E+00
  0.5120E+00
  0.4745E+00
  0.4674E+00
  0.4687E+00
  0.4740E+00
  0.4800E+00
  0.4862E+00
  0.4929E+00
  0.4952E+00
  0.4811E+00
  0.4263E+00
  0.3526E+00
  0.2862E+00
  0.2381E+00
  0.2112E+00
  0.2018E+00
  0.2002E+00
  0.2000E+00
  0.1041E+01
  0.1041E+01
  0.1041E+01
  0.1041E+01
  0.1041E+01
  0.1041E+01
  0.1041E+01
  0.1041E+01
  0.1041E+01
  0.1040E+01
  0.1037E+01
  0.1028E+01
  0.1012E+01
  0.9851E+00
  0.9494E+00
  0.9076E+00
  0.8633E+00
  0.8188E+00
  0.7750E+00
  0.7324E+00
  0.6915E+00
  0.6524E+00
  0.6149E+00
  0.5793E+00
  0.5453E+00
  0.5129E+00
  0.4824E+00
  0.4543E+00
  0.4296E+00
  0.4094E+00
  0.3960E+00
  0.3991E+00
  0.4197E+00
  0.4569E+00
  0.5008E+00
  0.5401E+00
  0.5733E+00
  0.6053E+00
  0.6171E+00
  0.6120E+00
  0.5743E+00
  0.5161E+00
  0.4782E+00
  0.4710E+00
  0.4720E+00
  0.4763E+00
  0.4809E+00
  0.4857E+00
  0.4911E+00
  0.4932E+00
  0.4811E+00
  0.4306E+00
  0.3604E+00
  0.2956E+00
  0.2462E+00
  0.2159E+00
  0.2033E+00
  0.2004E+00
  0.2000E+00
  0.2000E+00
  0.1030E+01
  0.1030E+01
  0.1030E+01
  0.1030E+01
  0.1030E+01
  0.1030E+01
  0.1030E+01
  0.1030E+01
  0.1030E+01
  0.1029E+01
  0.1027E+01
  0.1021E+01
  0.1007E+01
  0.9818E+00
  0.9467E+00
  0.9054E+00
  0.8613E+00
  0.8168E+00
  0.7729E+00
  0.7301E+00
  0.6886E+00
  0.6486E+00
  0.6105E+00
  0.5744E+00
  0.5406E+00
  0.5091E+00
  0.4798E+00
  0.4530E+00
  0.4306E+00
  0.4162E+00
  0.4193E+00
  0.4397E+00
  0.4748E+00
  0.5163E+00
  0.5562E+00
  0.5900E+00
  0.6110E+00
  0.6144E+00
  0.6080E+00
  0.5709E+00
  0.5155E+00
  0.4797E+00
  0.4732E+00
  0.4739E+00
  0.4775E+00
  0.4814E+00
  0.4852E+00
  0.4900E+00
  0.4920E+00
  0.4817E+00
  0.4343E+00
  0.3657E+00
  0.3019E+00
  0.2526E+00
  0.2203E+00
  0.2050E+00
  0.2007E+00
  0.2001E+00
  0.2000E+00
  0.2000E+00
  0.1030E+01
  0.1030E+01
  0.1030E+01
  0.1030E+01
  0.1030E+01
  0.1030E+01
  0.1030E+01
  0.1030E+01
  0.1029E+01
  0.1029E+01
  0.1027E+01
  0.1021E+01
  0.1007E+01
  0.9830E+00
  0.9491E+00
  0.9085E+00
  0.8647E+00
  0.8199E+00
  0.7756E+00
  0.7321E+00
  0.6901E+00
  0.6497E+00
  0.6114E+00
  0.5752E+00
  0.5414E+00
  0.5101E+00
  0.4816E+00
  0.4576E+00
  0.4436E+00
  0.4471E+00
  0.4667E+00
  0.5000E+00
  0.5365E+00
  0.5708E+00
  0.6041E+00
  0.6254E+00
  0.6224E+00
  0.6057E+00
  0.5634E+00
  0.5112E+00
  0.4780E+00
  0.4730E+00
  0.4745E+00
  0.4780E+00
  0.4812E+00
  0.4846E+00
  0.4891E+00
  0.4912E+00
  0.4817E+00
  0.4366E+00
  0.3698E+00
  0.3066E+00
  0.2572E+00
  0.2240E+00
  0.2068E+00
  0.2012E+00
  0.2001E+00
  0.2000E+00
  0.2000E+00
  0.2000E+00
  0.1032E+01
  0.1032E+01
  0.1032E+01
  0.1032E+01
  0.1032E+01
  0.1032E+01
  0.1032E+01
  0.1032E+01
  0.1032E+01
  0.1031E+01
  0.1029E+01
  0.1024E+01
  0.1012E+01
  0.9899E+00
  0.9576E+00
  0.9176E+00
  0.8737E+00
  0.8285E+00
  0.7833E+00
  0.7392E+00
  0.6964E+00
  0.6555E+00
  0.6169E+00
  0.5807E+00
  0.5473E+00
  0.5172E+00
  0.4926E+00
  0.4792E+00
  0.4823E+00
  0.4999E+00
  0.5297E+00
  0.5621E+00
  0.5909E+00
  0.6167E+00
  0.6313E+00
  0.6286E+00
  0.6092E+00
  0.5580E+00
  0.5050E+00
  0.4743E+00
  0.4708E+00
  0.4738E+00
  0.4781E+00
  0.4811E+00
  0.4842E+00
  0.4884E+00
  0.4904E+00
  0.4814E+00
  0.4371E+00
  0.3716E+00
  0.3097E+00
  0.2606E+00
  0.2268E+00
  0.2084E+00
  0.2017E+00
  0.2002E+00
  0.2000E+00
  0.2000E+00
  0.2000E+00
  0.2000E+00
  0.1040E+01
  0.1040E+01
  0.1040E+01
  0.1040E+01
  0.1040E+01
  0.1040E+01
  0.1040E+01
  0.1040E+01
  0.1040E+01
  0.1040E+01
  0.1038E+01
  0.1034E+01
  0.1023E+01
  0.1002E+01
  0.9709E+00
  0.9308E+00
  0.8862E+00
  0.8400E+00
  0.7939E+00
  0.7489E+00
  0.7058E+00
  0.6650E+00
  0.6269E+00
  0.5919E+00
  0.5607E+00
  0.5357E+00
  0.5215E+00
  0.5239E+00
  0.5385E+00
  0.5628E+00
  0.5890E+00
  0.6137E+00
  0.6335E+00
  0.6399E+00
  0.6328E+00
  0.6093E+00
  0.5560E+00
  0.5002E+00
  0.4698E+00
  0.4677E+00
  0.4718E+00
  0.4777E+00
  0.4812E+00
  0.4842E+00
  0.4881E+00
  0.4899E+00
  0.4810E+00
  0.4374E+00
  0.3725E+00
  0.3113E+00
  0.2628E+00
  0.2289E+00
  0.2097E+00
  0.2021E+00
  0.2003E+00
  0.2000E+00
  0.2000E+00
  0.2000E+00
  0.2000E+00
  0.2000E+00
  0.1053E+01
  0.1053E+01
  0.1053E+01
  0.1053E+01
  0.1053E+01
  0.1053E+01
  0.1053E+01
  0.1053E+01
  0.1053E+01
  0.1052E+01
  0.1051E+01
  0.1047E+01
  0.1037E+01
  0.1017E+01
  0.9863E+00
  0.9460E+00
  0.9005E+00
  0.8533E+00
  0.8063E+00
  0.7607E+00
  0.7175E+00
  0.6772E+00
  0.6405E+00
  0.6081E+00
  0.5825E+00
  0.5668E+00
  0.5675E+00
  0.5786E+00
  0.5978E+00
  0.6187E+00
  0.6366E+00
  0.6479E+00
  0.6474E+00
  0.6386E+00
  0.6103E+00
  0.5551E+00
  0.4977E+00
  0.4657E+00
  0.4637E+00
  0.4686E+00
  0.4766E+00
  0.4815E+00
  0.4847E+00
  0.4884E+00
  0.4899E+00
  0.4807E+00
  0.4373E+00
  0.3726E+00
  0.3120E+00
  0.2642E+00
  0.2303E+00
  0.2107E+00
  0.2025E+00
  0.2004E+00
  0.2000E+00
  0.2000E+00
  0.2000E+00
  0.2000E+00
  0.2000E+00
  0.2000E+00
  0.1065E+01
  0.1065E+01
  0.1065E+01
  0.1065E+01
  0.1065E+01
  0.1065E+01
  0.1065E+01
  0.1065E+01
  0.1065E+01
  0.1064E+01
  0.1063E+01
  0.1059E+01
  0.1050E+01
  0.1031E+01
  0.1001E+01
  0.9602E+00
  0.9137E+00
  0.8654E+00
  0.8177E+00
  0.7721E+00
  0.7297E+00
  0.6912E+00
  0.6575E+00
  0.6307E+00
  0.6136E+00
  0.6110E+00
  0.6191E+00
  0.6334E+00
  0.6481E+00
  0.6569E+00
  0.6568E+00
  0.6520E+00
  0.6417E+00
  0.6107E+00
  0.5554E+00
  0.4973E+00
  0.4627E+00
  0.4598E+00
  0.4647E+00
  0.4742E+00
  0.4812E+00
  0.4855E+00
  0.4892E+00
  0.4905E+00
  0.4810E+00
  0.4372E+00
  0.3725E+00
  0.3120E+00
  0.2647E+00
  0.2313E+00
  0.2114E+00
  0.2028E+00
  0.2005E+00
  0.2001E+00
  0.2000E+00
  0.2000E+00
  0.2000E+00
  0.2000E+00
  0.2000E+00
  0.2000E+00
  0.1072E+01
  0.1072E+01
  0.1072E+01
  0.1072E+01
  0.1072E+01
  0.1072E+01
  0.1072E+01
  0.1071E+01
  0.1071E+01
  0.1071E+01
  0.1070E+01
  0.1067E+01
  0.1058E+01
  0.1040E+01
  0.1009E+01
  0.9690E+00
  0.9223E+00
  0.8737E+00
  0.8266E+00
  0.7828E+00
  0.7430E+00
  0.7084E+00
  0.6808E+00
  0.6623E+00
  0.6549E+00
  0.6592E+00
  0.6675E+00
  0.6706E+00
  0.6677E+00
  0.6616E+00
  0.6539E+00
  0.6384E+00
  0.6043E+00
  0.5528E+00
  0.4979E+00
  0.4624E+00
  0.4578E+00
  0.4614E+00
  0.4714E+00
  0.4800E+00
  0.4858E+00
  0.4902E+00
  0.4913E+00
  0.4815E+00
  0.4375E+00
  0.3726E+00
  0.3120E+00
  0.2647E+00
  0.2316E+00
  0.2119E+00
  0.2031E+00
  0.2005E+00
  0.2001E+00
  0.2000E+00
  0.2000E+00
  0.2000E+00
  0.2000E+00
  0.2000E+00
  0.2000E+00
  0.2000E+00
  0.1072E+01
  0.1072E+01
  0.1072E+01
  0.1072E+01
  0.1072E+01
  0.1072E+01
  0.1072E+01
  0.1072E+01
  0.1072E+01
  0.1072E+01
  0.1071E+01
  0.1067E+01
  0.1058E+01
  0.1040E+01
  0.1010E+01
  0.9701E+00
  0.9244E+00
  0.8781E+00
  0.8343E+00
  0.7941E+00
  0.7593E+00
  0.7312E+00
  0.7111E+00
  0.6984E+00
  0.6925E+00
  0.6884E+00
  0.6812E+00
  0.6735E+00
  0.6636E+00
  0.6490E+00
  0.6247E+00
  0.5889E+00
  0.5433E+00
  0.4956E+00
  0.4636E+00
  0.4582E+00
  0.4606E+00
  0.4700E+00
  0.4792E+00
  0.4860E+00
  0.4910E+00
  0.4922E+00
  0.4820E+00
  0.4373E+00
  0.3725E+00
  0.3121E+00
  0.2647E+00
  0.2316E+00
  0.2120E+00
  0.2032E+00
  0.2006E+00
  0.2001E+00
  0.2000E+00
  0.2000E+00
  0.2000E+00
  0.2000E+00
  0.2000E+00
  0.2000E+00
  0.2000E+00
  0.2000E+00
  0.1069E+01
  0.1069E+01
  0.1069E+01
  0.1069E+01
  0.1069E+01
  0.1069E+01
  0.1069E+01
  0.1069E+01
  0.1069E+01
  0.1068E+01
  0.1067E+01
  0.1063E+01
  0.1054E+01
  0.1036E+01
  0.1006E+01
  0.9664E+00
  0.9220E+00
  0.8774E+00
  0.8356E+00
  0.7992E+00
  0.7684E+00
  0.7438E+00
  0.7240E+00
  0.7086E+00
  0.6972E+00
  0.6866E+00
  0.6735E+00
  0.6555E+00
  0.6317E+00
  0.6019E+00
  0.5668E+00
  0.5270E+00
  0.4884E+00
  0.4644E+00
  0.4602E+00
  0.4623E+00
  0.4711E+00
  0.4807E+00
  0.4879E+00
  0.4926E+00
  0.4928E+00
  0.4820E+00
  0.4368E+00
  0.3717E+00
  0.3113E+00
  0.2642E+00
  0.2313E+00
  0.2119E+00
  0.2032E+00
  0.2006E+00
  0.2001E+00
  0.2000E+00
  0.2000E+00
  0.2000E+00
  0.2000E+00
  0.2000E+00
  0.2000E+00
  0.2000E+00
  0.2000E+00
  0.2000E+00
  0.1038E+01
  0.1038E+01
  0.1038E+01
  0.1038E+01
  0.1038E+01
  0.1038E+01
  0.1038E+01
  0.1038E+01
  0.1038E+01
  0.1038E+01
  0.1036E+01
  0.1032E+01
  0.1022E+01
  0.1003E+01
  0.9746E+00
  0.9387E+00
  0.8995E+00
  0.8609E+00
  0.8252E+00
  0.7918E+00
  0.7624E+00
  0.7376E+00
  0.7162E+00
  0.6971E+00
  0.6779E+00
  0.6562E+00
  0.6316E+00
  0.6044E+00
  0.5744E+00
  0.5417E+00
  0.5081E+00
  0.4797E+00
  0.4658E+00
  0.4630E+00
  0.4656E+00
  0.4740E+00
  0.4839E+00
  0.4920E+00
  0.4962E+00
  0.4949E+00
  0.4811E+00
  0.4342E+00
  0.3699E+00
  0.3097E+00
  0.2628E+00
  0.2303E+00
  0.2114E+00
  0.2031E+00
  0.2006E+00
  0.2001E+00
  0.2000E+00
  0.2000E+00
  0.2000E+00
  0.2000E+00
  0.2000E+00
  0.2000E+00
  0.2000E+00
  0.2000E+00
  0.2000E+00
  0.2000E+00
  0.9568E+00
  0.9568E+00
  0.9568E+00
  0.9568E+00
  0.9568E+00
  0.9568E+00
  0.9567E+00
  0.9567E+00
  0.9565E+00
  0.9558E+00
  0.9538E+00
  0.9488E+00
  0.9385E+00
  0.9209E+00
  0.8960E+00
  0.8660E+00
  0.8341E+00
  0.8029E+00
  0.7738E+00
  0.7473E+00
  0.7217E+00
  0.6966E+00
  0.6716E+00
  0.6475E+00
  0.6233E+00
  0.5984E+00
  0.5725E+00
  0.5454E+00
  0.5175E+00
  0.4921E+00
  0.4759E+00
  0.4698E+00
  0.4676E+00
  0.4709E+00
  0.4787E+00
  0.4882E+00
  0.4966E+00
  0.5008E+00
  0.4981E+00
  0.4812E+00
  0.4301E+00
  0.3656E+00
  0.3066E+00
  0.2606E+00
  0.2289E+00
  0.2107E+00
  0.2028E+00
  0.2005E+00
  0.2001E+00
  0.2000E+00
  0.2000E+00
  0.2000E+00
  0.2000E+00
  0.2000E+00
  0.2000E+00
  0.2000E+00
  0.2000E+00
  0.2000E+00
  0.2000E+00
  0.2000E+00
  0.8536E+00
  0.8536E+00
  0.8536E+00
  0.8536E+00
  0.8536E+00
  0.8536E+00
  0.8536E+00
  0.8536E+00
  0.8533E+00
  0.8524E+00
  0.8500E+00
  0.8445E+00
  0.8342E+00
  0.8183E+00
  0.7976E+00
  0.7742E+00
  0.7501E+00
  0.7260E+00
  0.7021E+00
  0.6790E+00
  0.6563E+00
  0.6335E+00
  0.6103E+00
  0.5877E+00
  0.5649E+00
  0.5423E+00
  0.5203E+00
  0.5005E+00
  0.4865E+00
  0.4793E+00
  0.4749E+00
  0.4746E+00
  0.4784E+00
  0.4859E+00
  0.4950E+00
  0.5027E+00
  0.5059E+00
  0.5015E+00
  0.4807E+00
  0.4261E+00
  0.3603E+00
  0.3019E+00
  0.2572E+00
  0.2268E+00
  0.2097E+00
  0.2025E+00
  0.2005E+00
  0.2001E+00
  0.2000E+00
  0.2000E+00
  0.2000E+00
  0.2000E+00
  0.2000E+00
  0.2000E+00
  0.2000E+00
  0.2000E+00
  0.2000E+00
  0.2000E+00
  0.2000E+00
  0.2000E+00
  0.7617E+00
  0.7617E+00
  0.7617E+00
  0.7617E+00
  0.7617E+00
  0.7617E+00
  0.7617E+00
  0.7616E+00
  0.7613E+00
  0.7602E+00
  0.7575E+00
  0.7517E+00
  0.7418E+00
  0.7278E+00
  0.7112E+00
  0.6933E+00
  0.6749E+00
  0.6559E+00
  0.6365E+00
  0.6170E+00
  0.5978E+00
  0.5784E+00
  0.5591E+00
  0.5404E+00
  0.5237E+00
  0.5096E+00
  0.4988E+00
  0.4914E+00
  0.4857E+00
  0.4832E+00
  0.4844E+00
  0.4885E+00
  0.4957E+00
  0.5046E+00
  0.5113E+00
  0.5119E+00
  0.5046E+00
  0.4767E+00
  0.4183E+00
  0.3526E+00
  0.2955E+00
  0.2526E+00
  0.2240E+00
  0.2084E+00
  0.2021E+00
  0.2004E+00
  0.2001E+00
  0.2000E+00
  0.2000E+00
  0.2000E+00
  0.2000E+00
  0.2000E+00
  0.2000E+00
  0.2000E+00
  0.2000E+00
  0.2000E+00
  0.2000E+00
  0.2000E+00
  0.2000E+00
  0.2000E+00
  0.7012E+00
  0.7012E+00
  0.7012E+00
  0.7012E+00