# vtk DataFile Version 3.0
vtk output
ASCII
DATASET RECTILINEAR_GRID
DIMENSIONS          61          61 1
X_COORDINATES    61 double
  0.0000E+00
  0.1667E+00
  0.3333E+00
  0.5000E+00
  0.6667E+00
  0.8333E+00
  0.1000E+01
  0.1167E+01
  0.1333E+01
  0.1500E+01
  0.1667E+01
  0.1833E+01
  0.2000E+01
  0.2167E+01
  0.2333E+01
  0.2500E+01
  0.2667E+01
  0.2833E+01
  0.3000E+01
  0.3167E+01
  0.3333E+01
  0.3500E+01
  0.3667E+01
  0.3833E+01
  0.4000E+01
  0.4167E+01
  0.4333E+01
  0.4500E+01
  0.4667E+01
  0.4833E+01
  0.5000E+01
  0.5167E+01
  0.5333E+01
  0.5500E+01
  0.5667E+01
  0.5833E+01
  0.6000E+01
  0.6167E+01
  0.6333E+01
  0.6500E+01
  0.6667E+01
  0.6833E+01
  0.7000E+01
  0.7167E+01
  0.7333E+01
  0.7500E+01
  0.7667E+01
  0.7833E+01
  0.8000E+01
  0.8167E+01
  0.8333E+01
  0.8500E+01
  0.8667E+01
  0.8833E+01
  0.9000E+01
  0.9167E+01
  0.9333E+01
  0.9500E+01
  0.9667E+01
  0.9833E+01
  0.1000E+02
Y_COORDINATES    61 double
  0.0000E+00
  0.1667E+00
  0.3333E+00
  0.5000E+00
  0.6667E+00
  0.8333E+00
  0.1000E+01
  0.1167E+01
  0.1333E+01
  0.1500E+01
  0.1667E+01
  0.1833E+01
  0.2000E+01
  0.2167E+01
  0.2333E+01
  0.2500E+01
  0.2667E+01
  0.2833E+01
  0.3000E+01
  0.3167E+01
  0.3333E+01
  0.3500E+01
  0.3667E+01
  0.3833E+01
  0.4000E+01
  0.4167E+01
  0.4333E+01
  0.4500E+01
  0.4667E+01
  0.4833E+01
  0.5000E+01
  0.5167E+01
  0.5333E+01
  0.5500E+01
  0.5667E+01
  0.5833E+01
  0.6000E+01
  0.6167E+01
  0.6333E+01
  0.6500E+01
  0.6667E+01
  0.6833E+01
  0.7000E+01
  0.7167E+01
  0.7333E+01
  0.7500E+01
  0.7667E+01
  0.7833E+01
  0.8000E+01
  0.8167E+01
  0.8333E+01
  0.8500E+01
  0.8667E+01
  0.8833E+01
  0.9000E+01
  0.9167E+01
  0.9333E+01
  0.9500E+01
  0.9667E+01
  0.9833E+01
  0.1000E+02
Z_COORDINATES 1 double
0
CELL_DATA                 3600
FIELD FieldData 4
density 1                 3600 double
  0.3794E+01
  0.3794E+01
  0.3794E+01
  0.3794E+01
  0.3794E+01
  0.3794E+01
  0.3794E+01
  0.3794E+01
  0.3794E+01
  0.3794E+01
  0.3794E+01
  0.3794E+01
  0.3794E+01
  0.3794E+01
  0.3793E+01
  0.3791E+01
  0.3779E+01
  0.3743E+01
  0.3658E+01
  0.3512E+01
  0.3317E+01
  0.3101E+01
  0.2883E+01
  0.2672E+01
  0.2472E+01
  0.2287E+01
  0.2116E+01
  0.1958E+01
  0.1813E+01
  0.1679E+01
  0.1554E+01
  0.1438E+01
  0.1332E+01
  0.1236E+01
  0.1154E+01
  0.1095E+01
  0.1062E+01
  0.1052E+01
  0.1050E+01
  0.1046E+01
  0.1024E+01
  0.9501E+00
  0.8437E+00
  0.7422E+00
  0.6762E+00
  0.6644E+00
  0.6661E+00
  0.6454E+00
  0.4935E+00
  0.3071E+00
  0.2191E+00
  0.2005E+00
  0.2000E+00
  0.2000E+00
  0.2000E+00
  0.2000E+00
  0.2000E+00
  0.2000E+00
  0.2000E+00
  0.2000E+00
  0.3677E+01
  0.3677E+01
  0.3677E+01
  0.3677E+01
  0.3677E+01
  0.3677E+01
  0.3677E+01
  0.3677E+01
  0.3677E+01
  0.3677E+01
  0.3677E+01
  0.3677E+01
  0.3677E+01
  0.3677E+01
  0.3676E+01
  0.3674E+01
  0.3663E+01
  0.3628E+01
  0.3547E+01
  0.3406E+01
  0.3218E+01
  0.3009E+01
  0.2797E+01
  0.2593E+01
  0.2400E+01
  0.2222E+01
  0.2057E+01
  0.1905E+01
  0.1766E+01
  0.1637E+01
  0.1517E+01
  0.1407E+01
  0.1304E+01
  0.1212E+01
  0.1134E+01
  0.1078E+01
  0.1047E+01
  0.1039E+01
  0.1038E+01
  0.1035E+01
  0.1013E+01
  0.9389E+00
  0.8327E+00
  0.7317E+00
  0.6665E+00
  0.6561E+00
  0.6583E+00
  0.6384E+00
  0.4887E+00
  0.3052E+00
  0.2186E+00
  0.2005E+00
  0.2000E+00
  0.2000E+00
  0.2000E+00
  0.2000E+00
  0.2000E+00
  0.2000E+00
  0.2000E+00
  0.2000E+00
  0.3479E+01
  0.3479E+01
  0.3479E+01
  0.3479E+01
  0.3479E+01
  0.3479E+01
  0.3479E+01
  0.3479E+01
  0.3479E+01
  0.3479E+01
  0.3479E+01
  0.3479E+01
  0.3479E+01
  0.3479E+01
  0.3478E+01
  0.3476E+01
  0.3466E+01
  0.3435E+01
  0.3359E+01
  0.3227E+01
  0.3049E+01
  0.2851E+01
  0.2651E+01
  0.2457E+01
  0.2275E+01
  0.2106E+01
  0.1951E+01
  0.1808E+01
  0.1677E+01
  0.1557E+01
  0.1446E+01
  0.1342E+01
  0.1247E+01
  0.1162E+01
  0.1090E+01
  0.1039E+01
  0.1011E+01
  0.1007E+01
  0.1007E+01
  0.1006E+01
  0.9854E+00
  0.9122E+00
  0.8083E+00
  0.7102E+00
  0.6487E+00
  0.6413E+00
  0.6449E+00
  0.6264E+00
  0.4798E+00
  0.3012E+00
  0.2176E+00
  0.2005E+00
  0.2000E+00
  0.2000E+00
  0.2000E+00
  0.2000E+00
  0.2000E+00
  0.2000E+00
  0.2000E+00
  0.2000E+00
  0.3249E+01
  0.3249E+01
  0.3249E+01
  0.3249E+01
  0.3249E+01
  0.3249E+01
  0.3249E+01
  0.3249E+01
  0.3249E+01
  0.3249E+01
  0.3249E+01
  0.3249E+01
  0.3249E+01
  0.3249E+01
  0.3249E+01
  0.3247E+01
  0.3238E+01
  0.3210E+01
  0.3141E+01
  0.3019E+01
  0.2853E+01
  0.2667E+01
  0.2479E+01
  0.2296E+01
  0.2125E+01
  0.1967E+01
  0.1821E+01
  0.1688E+01
  0.1566E+01
  0.1454E+01
  0.1350E+01
  0.1255E+01
  0.1167E+01
  0.1089E+01
  0.1023E+01
  0.9772E+00
  0.9533E+00
  0.9513E+00
  0.9543E+00
  0.9538E+00
  0.9359E+00
  0.8678E+00
  0.7715E+00
  0.6810E+00
  0.6273E+00
  0.6228E+00
  0.6299E+00
  0.6115E+00
  0.4663E+00
  0.2949E+00
  0.2158E+00
  0.2004E+00
  0.2000E+00
  0.2000E+00
  0.2000E+00
  0.2000E+00
  0.2000E+00
  0.2000E+00
  0.2000E+00
  0.2000E+00
  0.3014E+01
  0.3014E+01
  0.3014E+01
  0.3014E+01
  0.3014E+01
  0.3014E+01
  0.3014E+01
  0.3014E+01
  0.3014E+01
  0.3014E+01
  0.3014E+01
  0.3014E+01
  0.3014E+01
  0.3014E+01
  0.3014E+01
  0.3012E+01
  0.3005E+01
  0.2980E+01
  0.2918E+01
  0.2806E+01
  0.2652E+01
  0.2479E+01
  0.2302E+01
  0.2131E+01
  0.1970E+01
  0.1822E+01
  0.1685E+01
  0.1560E+01
  0.1446E+01
  0.1342E+01
  0.1246E+01
  0.1157E+01
  0.1076E+01
  0.1004E+01
  0.9435E+00
  0.9021E+00
  0.8803E+00
  0.8785E+00
  0.8830E+00
  0.8840E+00
  0.8708E+00
  0.8125E+00
  0.7290E+00
  0.6492E+00
  0.6054E+00
  0.6046E+00
  0.6144E+00
  0.5943E+00
  0.4474E+00
  0.2860E+00
  0.2134E+00
  0.2003E+00
  0.2000E+00
  0.2000E+00
  0.2000E+00
  0.2000E+00
  0.2000E+00
  0.2000E+00
  0.2000E+00
  0.2000E+00
  0.2786E+01
  0.2786E+01
  0.2786E+01
  0.2786E+01
  0.2786E+01
  0.2786E+01
  0.2786E+01
  0.2786E+01
  0.2786E+01
  0.2786E+01
  0.2786E+01
  0.2786E+01
  0.2786E+01
  0.2786E+01
  0.2786E+01
  0.2784E+01
  0.2778E+01
  0.2757E+01
  0.2702E+01
  0.2600E+01
  0.2458E+01
  0.2296E+01
  0.2131E+01
  0.1970E+01
  0.1819E+01
  0.1680E+01
  0.1552E+01
  0.1435E+01
  0.1329E+01
  0.1231E+01
  0.1141E+01
  0.1059E+01
  0.9837E+00
  0.9168E+00
  0.8612E+00
  0.8232E+00
  0.8022E+00
  0.7999E+00
  0.8043E+00
  0.8085E+00
  0.8012E+00
  0.7572E+00
  0.6870E+00
  0.6188E+00
  0.5843E+00
  0.5870E+00
  0.5990E+00
  0.5745E+00
  0.4229E+00
  0.2747E+00
  0.2105E+00
  0.2002E+00
  0.2000E+00
  0.2000E+00
  0.2000E+00
  0.2000E+00
  0.2000E+00
  0.2000E+00
  0.2000E+00
  0.2000E+00
  0.2571E+01
  0.2571E+01
  0.2571E+01
  0.2571E+01
  0.2571E+01
  0.2571E+01
  0.2571E+01
  0.2571E+01
  0.2571E+01
  0.2571E+01
  0.2571E+01
  0.2571E+01
  0.2571E+01
  0.2571E+01
  0.2571E+01
  0.2570E+01
  0.2564E+01
  0.2546E+01
  0.2498E+01
  0.2406E+01
  0.2276E+01
  0.2125E+01
  0.1970E+01
  0.1819E+01
  0.1678E+01
  0.1547E+01
  0.1427E+01
  0.1317E+01
  0.1217E+01
  0.1126E+01
  0.1042E+01
  0.9651E+00
  0.8950E+00
  0.8328E+00
  0.7812E+00
  0.7459E+00
  0.7252E+00
  0.7228E+00
  0.7278E+00
  0.7366E+00
  0.7349E+00
  0.7080E+00
  0.6502E+00
  0.5893E+00
  0.5652E+00
  0.5712E+00
  0.5843E+00
  0.5506E+00
  0.3935E+00
  0.2616E+00
  0.2075E+00
  0.2001E+00
  0.2000E+00
  0.2000E+00
  0.2000E+00
  0.2000E+00
  0.2000E+00
  0.2000E+00
  0.2000E+00
  0.2000E+00
  0.2372E+01
  0.2372E+01
  0.2372E+01
  0.2372E+01
  0.2372E+01
  0.2372E+01
  0.2372E+01
  0.2372E+01
  0.2372E+01
  0.2372E+01
  0.2372E+01
  0.2372E+01
  0.2372E+01
  0.2372E+01
  0.2372E+01
  0.2371E+01
  0.2366E+01
  0.2351E+01
  0.2309E+01
  0.2227E+01
  0.2107E+01
  0.1967E+01
  0.1822E+01
  0.1680E+01
  0.1547E+01
  0.1424E+01
  0.1311E+01
  0.1208E+01
  0.1114E+01
  0.1029E+01
  0.9505E+00
  0.8784E+00
  0.8129E+00
  0.7550E+00
  0.7067E+00
  0.6737E+00
  0.6533E+00
  0.6514E+00
  0.6585E+00
  0.6754E+00
  0.6804E+00
  0.6680E+00
  0.6185E+00
  0.5627E+00
  0.5469E+00
  0.5578E+00
  0.5699E+00
  0.5197E+00
  0.3621E+00
  0.2475E+00
  0.2048E+00
  0.2001E+00
  0.2000E+00
  0.2000E+00
  0.2000E+00
  0.2000E+00
  0.2000E+00
  0.2000E+00
  0.2000E+00
  0.2000E+00
  0.2188E+01
  0.2188E+01
  0.2188E+01
  0.2188E+01
  0.2188E+01
  0.2188E+01
  0.2188E+01
  0.2188E+01
  0.2188E+01
  0.2188E+01
  0.2188E+01
  0.2188E+01
  0.2188E+01
  0.2188E+01
  0.2188E+01
  0.2187E+01
  0.2183E+01
  0.2170E+01
  0.2134E+01
  0.2061E+01
  0.1952E+01
  0.1821E+01
  0.1685E+01
  0.1552E+01
  0.1427E+01
  0.1311E+01
  0.1205E+01
  0.1108E+01
  0.1021E+01
  0.9404E+00
  0.8669E+00
  0.7994E+00
  0.7381E+00
  0.6840E+00
  0.6389E+00
  0.6076E+00
  0.5891E+00
  0.5887E+00
  0.6011E+00
  0.6305E+00
  0.6446E+00
  0.6356E+00
  0.5872E+00
  0.5368E+00
  0.5312E+00
  0.5482E+00
  0.5526E+00
  0.4810E+00
  0.3288E+00
  0.2336E+00
  0.2026E+00
  0.2000E+00
  0.2000E+00
  0.2000E+00
  0.2000E+00
  0.2000E+00
  0.2000E+00
  0.2000E+00
  0.2000E+00
  0.2000E+00
  0.2018E+01
  0.2018E+01
  0.2018E+01
  0.2018E+01
  0.2018E+01
  0.2018E+01
  0.2018E+01
  0.2018E+01
  0.2018E+01
  0.2018E+01
  0.2018E+01
  0.2018E+01
  0.2018E+01
  0.2018E+01
  0.2018E+01
  0.2018E+01
  0.2015E+01
  0.2004E+01
  0.1973E+01
  0.1908E+01
  0.1809E+01
  0.1688E+01
  0.1560E+01
  0.1435E+01
  0.1317E+01
  0.1208E+01
  0.1108E+01
  0.1018E+01
  0.9351E+00
  0.8599E+00
  0.7911E+00
  0.7279E+00
  0.6706E+00
  0.6197E+00
  0.5781E+00
  0.5462E+00
  0.5353E+00
  0.5383E+00
  0.5598E+00
  0.6071E+00
  0.6249E+00
  0.6104E+00
  0.5538E+00
  0.5155E+00
  0.5188E+00
  0.5401E+00
  0.5328E+00
  0.4324E+00
  0.2961E+00
  0.2212E+00
  0.2013E+00
  0.2000E+00
  0.2000E+00
  0.2000E+00
  0.2000E+00
  0.2000E+00
  0.2000E+00
  0.2000E+00
  0.2000E+00
  0.2000E+00
  0.1862E+01
  0.1862E+01
  0.1862E+01
  0.1862E+01
  0.1862E+01
  0.1862E+01
  0.1862E+01
  0.1862E+01
  0.1862E+01
  0.1862E+01
  0.1862E+01
  0.1862E+01
  0.1862E+01
  0.1862E+01
  0.1862E+01
  0.1862E+01
  0.1860E+01
  0.1851E+01
  0.1825E+01
  0.1768E+01
  0.1678E+01
  0.1565E+01
  0.1446E+01
  0.1328E+01
  0.1217E+01
  0.1114E+01
  0.1020E+01
  0.9351E+00
  0.8576E+00
  0.7871E+00
  0.7226E+00
  0.6633E+00
  0.6097E+00
  0.5618E+00
  0.5232E+00
  0.4938E+00
  0.4911E+00
  0.5027E+00
  0.5531E+00
  0.6121E+00
  0.6163E+00
  0.5790E+00
  0.5177E+00
  0.5002E+00
  0.5131E+00
  0.5300E+00
  0.5028E+00
  0.3790E+00
  0.2665E+00
  0.2117E+00
  0.2005E+00
  0.2000E+00
  0.2000E+00
  0.2000E+00
  0.2000E+00
  0.2000E+00
  0.2000E+00
  0.2000E+00
  0.2000E+00
  0.2000E+00
  0.1719E+01
  0.1719E+01
  0.1719E+01
  0.1719E+01
  0.1719E+01
  0.1719E+01
  0.1719E+01
  0.1719E+01
  0.1719E+01
  0.1719E+01
  0.1719E+01
  0.1719E+01
  0.1719E+01
  0.1719E+01
  0.1719E+01
  0.1719E+01
  0.1717E+01
  0.1710E+01
  0.1688E+01
  0.1639E+01
  0.1557E+01
  0.1453E+01
  0.1342E+01
  0.1231E+01
  0.1126E+01
  0.1029E+01
  0.9403E+00
  0.8599E+00
  0.7871E+00
  0.7209E+00
  0.6602E+00
  0.6048E+00
  0.5541E+00
  0.5099E+00
  0.4703E+00
  0.4555E+00
  0.4615E+00
  0.5002E+00
  0.5722E+00
  0.6086E+00
  0.5955E+00
  0.5360E+00
  0.4904E+00
  0.4903E+00
  0.5119E+00
  0.5148E+00
  0.4546E+00
  0.3296E+00
  0.2415E+00
  0.2055E+00
  0.2002E+00
  0.2000E+00
  0.2000E+00
  0.2000E+00
  0.2000E+00
  0.2000E+00
  0.2000E+00
  0.2000E+00
  0.2000E+00
  0.2000E+00
  0.1587E+01
  0.1587E+01
  0.1587E+01
  0.1587E+01
  0.1587E+01
  0.1587E+01
  0.1587E+01
  0.1587E+01
  0.1587E+01
  0.1587E+01
  0.1587E+01
  0.1587E+01
  0.1587E+01
  0.1587E+01
  0.1587E+01
  0.1587E+01
  0.1586E+01
  0.1580E+01
  0.1562E+01
  0.1519E+01
  0.1446E+01
  0.1350E+01
  0.1246E+01
  0.1141E+01
  0.1042E+01
  0.9504E+00
  0.8668E+00
  0.7911E+00
  0.7225E+00
  0.6601E+00
  0.6033E+00
  0.5509E+00
  0.5039E+00
  0.4604E+00
  0.4296E+00
  0.4323E+00
  0.4628E+00
  0.5288E+00
  0.5916E+00
  0.5943E+00
  0.5544E+00
  0.4936E+00
  0.4763E+00
  0.4897E+00
  0.5063E+00
  0.4887E+00
  0.3931E+00
  0.2863E+00
  0.2225E+00
  0.2021E+00
  0.2001E+00
  0.2000E+00
  0.2000E+00
  0.2000E+00
  0.2000E+00
  0.2000E+00
  0.2000E+00
  0.2000E+00
  0.2000E+00
  0.2000E+00
  0.1465E+01
  0.1465E+01
  0.1465E+01
  0.1465E+01
  0.1465E+01
  0.1465E+01
  0.1465E+01
  0.1465E+01
  0.1465E+01
  0.1465E+01
  0.1465E+01
  0.1465E+01
  0.1465E+01
  0.1465E+01
  0.1465E+01
  0.1465E+01
  0.1464E+01
  0.1459E+01
  0.1444E+01
  0.1408E+01
  0.1342E+01
  0.1255E+01
  0.1157E+01
  0.1059E+01
  0.9650E+00
  0.8783E+00
  0.7993E+00
  0.7278E+00
  0.6632E+00
  0.6048E+00
  0.5509E+00
  0.5023E+00
  0.4557E+00
  0.4149E+00
  0.4138E+00
  0.4358E+00
  0.4921E+00
  0.5688E+00
  0.5891E+00
  0.5659E+00
  0.5036E+00
  0.4690E+00
  0.4738E+00
  0.4927E+00
  0.4923E+00
  0.4381E+00
  0.3336E+00
  0.2517E+00
  0.2102E+00
  0.2007E+00
  0.2000E+00
  0.2000E+00
  0.2000E+00
  0.2000E+00
  0.2000E+00
  0.2000E+00
  0.2000E+00
  0.2000E+00
  0.2000E+00
  0.2000E+00
  0.1353E+01
  0.1353E+01
  0.1353E+01
  0.1353E+01
  0.1353E+01
  0.1353E+01
  0.1353E+01
  0.1353E+01
  0.1353E+01
  0.1353E+01
  0.1353E+01
  0.1353E+01
  0.1353E+01
  0.1353E+01
  0.1353E+01
  0.1353E+01
  0.1352E+01
  0.1349E+01
  0.1336E+01
  0.1305E+01
  0.1247E+01
  0.1167E+01
  0.1076E+01
  0.9835E+00
  0.8948E+00
  0.8128E+00
  0.7380E+00
  0.6705E+00
  0.6096E+00
  0.5541E+00
  0.5038E+00
  0.4556E+00
  0.4106E+00
  0.4060E+00
  0.4203E+00
  0.4656E+00
  0.5395E+00
  0.5798E+00
  0.5699E+00
  0.5163E+00
  0.4686E+00
  0.4663E+00
  0.4799E+00
  0.4882E+00
  0.4595E+00
  0.3722E+00
  0.2847E+00
  0.2266E+00
  0.2037E+00
  0.2002E+00
  0.2000E+00
  0.2000E+00
  0.2000E+00
  0.2000E+00
  0.2000E+00
  0.2000E+00
  0.2000E+00
  0.2000E+00
  0.2000E+00
  0.2000E+00
  0.1253E+01
  0.1253E+01
  0.1253E+01
  0.1253E+01
  0.1253E+01
  0.1253E+01
  0.1253E+01
  0.1253E+01
  0.1253E+01
  0.1253E+01
  0.1253E+01
  0.1253E+01
  0.1253E+01
  0.1253E+01
  0.1253E+01
  0.1253E+01
  0.1252E+01
  0.1249E+01
  0.1239E+01
  0.1213E+01
  0.1162E+01
  0.1089E+01
  0.1004E+01
  0.9167E+00
  0.8327E+00
  0.7549E+00
  0.6839E+00
  0.6197E+00
  0.5617E+00
  0.5098E+00
  0.4603E+00
  0.4152E+00
  0.4048E+00
  0.4120E+00
  0.4475E+00
  0.5224E+00
  0.5767E+00
  0.5728E+00
  0.5279E+00
  0.4750E+00
  0.4640E+00
  0.4720E+00
  0.4820E+00
  0.4675E+00
  0.3993E+00
  0.3137E+00
  0.2475E+00
  0.2112E+00
  0.2011E+00
  0.2000E+00
  0.2000E+00
  0.2000E+00
  0.2000E+00
  0.2000E+00
  0.2000E+00
  0.2000E+00
  0.2000E+00
  0.2000E+00
  0.2000E+00
  0.2000E+00
  0.1167E+01
  0.1167E+01
  0.1167E+01
  0.1167E+01
  0.1167E+01
  0.1167E+01
  0.1167E+01
  0.1167E+01
  0.1167E+01
  0.1167E+01
  0.1167E+01
  0.1167E+01
  0.1167E+01
  0.1167E+01
  0.1167E+01
  0.1167E+01
  0.1167E+01
  0.1165E+01
  0.1157E+01
  0.1134E+01
  0.1090E+01
  0.1023E+01
  0.9433E+00
  0.8610E+00
  0.7811E+00
  0.7066E+00
  0.6388E+00
  0.5780E+00
  0.5231E+00
  0.4701E+00
  0.4298E+00
  0.4125E+00
  0.4205E+00
  0.4478E+00
  0.5004E+00
  0.5682E+00
  0.5754E+00
  0.5423E+00
  0.4858E+00
  0.4666E+00
  0.4700E+00
  0.4783E+00
  0.4700E+00
  0.4153E+00
  0.3353E+00
  0.2671E+00
  0.2223E+00
  0.2037E+00
  0.2002E+00
  0.2000E+00
  0.2000E+00
  0.2000E+00
  0.2000E+00
  0.2000E+00
  0.2000E+00
  0.2000E+00
  0.2000E+00
  0.2000E+00
  0.2000E+00
  0.2000E+00
  0.1105E+01
  0.1105E+01
  0.1105E+01
  0.1105E+01
  0.1105E+01
  0.1105E+01
  0.1105E+01
  0.1105E+01
  0.1105E+01
  0.1105E+01
  0.1105E+01
  0.1105E+01
  0.1105E+01
  0.1105E+01
  0.1105E+01
  0.1105E+01
  0.1105E+01
  0.1103E+01
  0.1097E+01
  0.1078E+01
  0.1039E+01
  0.9771E+00
  0.9020E+00
  0.8231E+00
  0.7459E+00
  0.6736E+00
  0.6076E+00
  0.5460E+00
  0.4939E+00
  0.4558E+00
  0.4316E+00
  0.4366E+00
  0.4654E+00
  0.5212E+00
  0.5683E+00
  0.5736E+00
  0.5487E+00
  0.4955E+00
  0.4713E+00
  0.4723E+00
  0.4782E+00
  0.4712E+00
  0.4237E+00
  0.3495E+00
  0.2826E+00
  0.2339E+00
  0.2083E+00
  0.2009E+00
  0.2000E+00
  0.2000E+00
  0.2000E+00
  0.2000E+00
  0.2000E+00
  0.2000E+00
  0.2000E+00
  0.2000E+00
  0.2000E+00
  0.2000E+00
  0.2000E+00
  0.2000E+00
  0.1070E+01
  0.1070E+01
  0.1070E+01
  0.1070E+01
  0.1070E+01
  0.1070E+01
  0.1070E+01
  0.1070E+01
  0.1070E+01
  0.1070E+01
  0.1070E+01
  0.1070E+01
  0.1070E+01
  0.1070E+01
  0.1070E+01
  0.1070E+01
  0.1070E+01
  0.1069E+01
  0.1063E+01
  0.1047E+01
  0.1011E+01
  0.9532E+00
  0.8802E+00
  0.8021E+00
  0.7251E+00
  0.6533E+00
  0.5890E+00
  0.5355E+00
  0.4911E+00
  0.4608E+00
  0.4639E+00
  0.4917E+00
  0.5392E+00
  0.5763E+00
  0.5759E+00
  0.5490E+00
  0.4982E+00
  0.4726E+00
  0.4735E+00
  0.4787E+00
  0.4722E+00
  0.4287E+00
  0.3587E+00
  0.2935E+00
  0.2438E+00
  0.2137E+00
  0.2023E+00
  0.2002E+00
  0.2000E+00
  0.2000E+00
  0.2000E+00
  0.2000E+00
  0.2000E+00
  0.2000E+00
  0.2000E+00
  0.2000E+00
  0.2000E+00
  0.2000E+00
  0.2000E+00
  0.2000E+00
  0.1058E+01
  0.1058E+01
  0.1058E+01
  0.1058E+01
  0.1058E+01
  0.1058E+01
  0.1058E+01
  0.1058E+01
  0.1058E+01
  0.1058E+01
  0.1058E+01
  0.1058E+01
  0.1058E+01
  0.1058E+01
  0.1058E+01
  0.1058E+01
  0.1058E+01
  0.1057E+01
  0.1053E+01
  0.1039E+01
  0.1007E+01
  0.9512E+00
  0.8784E+00
  0.7998E+00
  0.7227E+00
  0.6514E+00
  0.5887E+00
  0.5383E+00
  0.5022E+00
  0.5013E+00
  0.5278E+00
  0.5688E+00
  0.5815E+00
  0.5734E+00
  0.5418E+00
  0.4958E+00
  0.4725E+00
  0.4725E+00
  0.4766E+00
  0.4714E+00
  0.4295E+00
  0.3627E+00
  0.3008E+00
  0.2513E+00
  0.2189E+00
  0.2042E+00
  0.2005E+00
  0.2000E+00
  0.2000E+00
  0.2000E+00
  0.2000E+00
  0.2000E+00
  0.2000E+00
  0.2000E+00
  0.2000E+00
  0.2000E+00
  0.2000E+00
  0.2000E+00
  0.2000E+00
  0.2000E+00
  0.1055E+01
  0.1055E+01
  0.1055E+01
  0.1055E+01
  0.1055E+01
  0.1055E+01
  0.1055E+01
  0.1055E+01
  0.1055E+01
  0.1055E+01
  0.1055E+01
  0.1055E+01
  0.1055E+01
  0.1055E+01
  0.1055E+01
  0.1055E+01
  0.1055E+01
  0.1054E+01
  0.1051E+01
  0.1038E+01
  0.1008E+01
  0.9543E+00
  0.8830E+00
  0.8043E+00
  0.7278E+00
  0.6586E+00
  0.6011E+00
  0.5599E+00
  0.5539E+00
  0.5721E+00
  0.5912E+00
  0.5870E+00
  0.5705E+00
  0.5271E+00
  0.4857E+00
  0.4705E+00
  0.4734E+00
  0.4768E+00
  0.4688E+00
  0.4276E+00
  0.3627E+00
  0.3036E+00
  0.2566E+00
  0.2232E+00
  0.2062E+00
  0.2009E+00
  0.2001E+00
  0.2000E+00
  0.2000E+00
  0.2000E+00
  0.2000E+00
  0.2000E+00
  0.2000E+00
  0.2000E+00
  0.2000E+00
  0.2000E+00
  0.2000E+00
  0.2000E+00
  0.2000E+00
  0.2000E+00
  0.1052E+01
  0.1052E+01
  0.1052E+01
  0.1052E+01
  0.1052E+01
  0.1052E+01
  0.1052E+01
  0.1052E+01
  0.1052E+01
  0.1052E+01
  0.1052E+01
  0.1052E+01
  0.1052E+01
  0.1052E+01
  0.1052E+01
  0.1052E+01
  0.1051E+01
  0.1051E+01
  0.1047E+01
  0.1035E+01
  0.1006E+01
  0.9538E+00
  0.8840E+00
  0.8086E+00
  0.7366E+00
  0.6753E+00
  0.6306E+00
  0.6076E+00
  0.6118E+00
  0.6085E+00
  0.5944E+00
  0.5657E+00
  0.5160E+00
  0.4750E+00
  0.4662E+00
  0.4721E+00
  0.4786E+00
  0.4715E+00
  0.4275E+00
  0.3618E+00
  0.3034E+00
  0.2587E+00
  0.2265E+00
  0.2081E+00
  0.2015E+00
  0.2002E+00
  0.2000E+00
  0.2000E+00
  0.2000E+00
  0.2000E+00
  0.2000E+00
  0.2000E+00
  0.2000E+00
  0.2000E+00
  0.2000E+00
  0.2000E+00
  0.2000E+00
  0.2000E+00
  0.2000E+00
  0.2000E+00
  0.1030E+01
  0.1030E+01
  0.1030E+01
  0.1030E+01
  0.1030E+01
  0.1030E+01
  0.1030E+01
  0.1030E+01
  0.1030E+01
  0.1030E+01
  0.1030E+01
  0.1030E+01
  0.1030E+01
  0.1030E+01
  0.1030E+01
  0.1030E+01
  0.1030E+01
  0.1029E+01
  0.1025E+01
  0.1014E+01
  0.9854E+00
  0.9358E+00
  0.8708E+00
  0.8011E+00
  0.7348E+00
  0.6804E+00
  0.6446E+00
  0.6249E+00
  0.6163E+00
  0.5955E+00
  0.5541E+00
  0.5041E+00
  0.4690E+00
  0.4640E+00
  0.4701E+00
  0.4781E+00
  0.4721E+00
  0.4296E+00
  0.3628E+00
  0.3034E+00
  0.2586E+00
  0.2278E+00
  0.2097E+00
  0.2021E+00
  0.2003E+00
  0.2000E+00
  0.2000E+00
  0.2000E+00
  0.2000E+00
  0.2000E+00
  0.2000E+00
  0.2000E+00
  0.2000E+00
  0.2000E+00
  0.2000E+00
  0.2000E+00
  0.2000E+00
  0.2000E+00
  0.2000E+00
  0.2000E+00
  0.9567E+00
  0.9567E+00
  0.9567E+00
  0.9567E+00
  0.9567E+00
  0.9567E+00
  0.9567E+00
  0.9567E+00
  0.9567E+00
  0.9567E+00
  0.9567E+00
  0.9567E+00
  0.9567E+00
  0.9567E+00
  0.9567E+00
  0.9567E+00
  0.9564E+00
  0.9554E+00
  0.9514E+00
  0.9392E+00
  0.9121E+00
  0.8676E+00
  0.8123E+00
  0.7571E+00
  0.7079E+00
  0.6678E+00
  0.6356E+00
  0.6104E+00
  0.5788E+00
  0.5363E+00
  0.4932E+00
  0.4685E+00
  0.4657E+00
  0.4719E+00
  0.4787E+00
  0.4713E+00
  0.4288E+00
  0.3629E+00
  0.3036E+00
  0.2587E+00
  0.2278E+00
  0.2102E+00
  0.2025E+00
  0.2004E+00
  0.2000E+00
  0.2000E+00
  0.2000E+00
  0.2000E+00
  0.2000E+00
  0.2000E+00
  0.2000E+00
  0.2000E+00
  0.2000E+00
  0.2000E+00
  0.2000E+00
  0.2000E+00
  0.2000E+00
  0.2000E+00
  0.2000E+00
  0.2000E+00
  0.8514E+00
  0.8514E+00
  0.8514E+00
  0.8514E+00
  0.8514E+00
  0.8514E+00
  0.8514E+00
  0.8514E+00
  0.8514E+00
  0.8514E+00
  0.8514E+00
  0.8514E+00
  0.8514E+00
  0.8514E+00
  0.8514E+00
  0.8514E+00
  0.8511E+00
  0.8498E+00
  0.8453E+00
  0.8329E+00
  0.8082E+00
  0.7713E+00
  0.7288E+00
  0.6867E+00
  0.6500E+00
  0.6185E+00
  0.5872E+00
  0.5540E+00
  0.5176E+00
  0.4903E+00
  0.4768E+00
  0.4737E+00
  0.4796E+00
  0.4817E+00
  0.4701E+00
  0.4236E+00
  0.3587E+00
  0.3008E+00
  0.2566E+00
  0.2265E+00
  0.2097E+00
  0.2025E+00
  0.2005E+00
  0.2001E+00
  0.2000E+00
  0.2000E+00
  0.2000E+00
  0.2000E+00
  0.2000E+00
  0.2000E+00
  0.2000E+00
  0.2000E+00
  0.2000E+00
  0.2000E+00
  0.2000E+00
  0.2000E+00
  0.2000E+00
  0.2000E+00
  0.2000E+00
  0.2000E+00
  0.7508E+00
  0.7508E+00
  0.7508E+00
  0.7508E+00
  0.7508E+00
  0.7508E+00
  0.7508E+00
  0.7508E+00
  0.7508E+00
  0.7508E+00
  0.7508E+00
  0.7508E+00
  0.7508E+00
  0.7508E+00
  0.7507E+00
  0.7507E+00
  0.7504E+00
  0.7489E+00
  0.7441E+00
  0.7320E+00
  0.7102E+00
  0.6808E+00
  0.6490E+00
  0.6186E+00
  0.5893E+00
  0.5628E+00
  0.5370E+00
  0.5154E+00
  0.5005E+00
  0.4901E+00
  0.4897E+00
  0.4927E+00
  0.4876E+00
  0.4676E+00
  0.4145E+00
  0.3495E+00
  0.2935E+00
  0.2513E+00
  0.2232E+00
  0.2081E+00
  0.2021E+00
  0.2004E+00
  0.2001E+00
  0.2000E+00
  0.2000E+00
  0.2000E+00
  0.2000E+00
  0.2000E+00
  0.2000E+00
  0.2000E+00
  0.2000E+00
  0.2000E+00
  0.2000E+00
  0.2000E+00
  0.2000E+00
  0.2000E+00
  0.2000E+00
  0.2000E+00
  0.2000E+00
  0.2000E+00
  0.6853E+00
  0.6853E+00
  0.6853E+00
  0.6853E+00
  0.6853E+00
  0.6853E+00
  0.6853E+00
  0.6853E+00
  0.6853E+00
  0.6853E+00
  0.6853E+00
  0.6853E+00
  0.6853E+00
  0.6853E+00
  0.6853E+00
  0.6852E+00
  0.6848E+00
  0.6832E+00
  0.6782E+00
  0.6669E+00
  0.6487E+00
  0.6273E+00
  0.6053E+00
  0.5841E+00
  0.5651E+00
  0.5469E+00
  0.5312E+00
  0.5189E+00
  0.5132E+00
  0.5117E+00
  0.5065E+00
  0.4929E+00
  0.4596E+00
  0.3986E+00
  0.3352E+00
  0.2826E+00
  0.2438E+00
  0.2189E+00
  0.2062E+00
  0.2015E+00
  0.2003E+00
  0.2000E+00
  0.2000E+00
  0.2000E+00
  0.2000E+00
  0.2000E+00
  0.2000E+00
  0.2000E+00
  0.2000E+00
  0.2000E+00
  0.2000E+00
  0.2000E+00
  0.2000E+00
  0.2000E+00
  0.2000E+00
  0.2000E+00
  0.2000E+00
  0.2000E+00
  0.2000E+00
  0.2000E+00
  0.6734E+00
  0.6734E+00
  0.6734E+00
  0.6734E+00
  0.6734E+00
  0.6734E+00
  0.6734E+00
  0.6734E+00
  0.6734E+00
  0.6734E+00
  0.6734E+00
  0.6734E+00
  0.6734E+00
  0.6734E+00
  0.6734E+00
  0.6733E+00
  0.6729E+00
  0.6713E+00
  0.6665E+00
  0.6565E+00
  0.6414E+00
  0.6228E+00
  0.6045E+00
  0.5869E+00
  0.5711E+00
  0.5578E+00
  0.5482E+00
  0.5401E+00
  0.5300E+00
  0.5148E+00
  0.4889E+00
  0.4381E+00
  0.3725E+00
  0.3136E+00
  0.2671E+00
  0.2339E+00
  0.2137E+00
  0.2042E+00
  0.2009E+00
  0.2002E+00
  0.2000E+00
  0.2000E+00
  0.2000E+00
  0.2000E+00
  0.2000E+00
  0.2000E+00
  0.2000E+00
  0.2000E+00
  0.2000E+00
  0.2000E+00
  0.2000E+00
  0.2000E+00
  0.2000E+00
  0.2000E+00
  0.2000E+00
  0.2000E+00
  0.2000E+00
  0.2000E+00
  0.2000E+00
  0.2000E+00
  0.6748E+00
  0.6748E+00
  0.6748E+00
  0.6748E+00
  0.6748E+00
  0.6748E+00
  0.6748E+00
  0.6748E+00
  0.6748E+00
  0.6748E+00
  0.6748E+00
  0.6748E+00
  0.6748E+00
  0.6748E+00
  0.6748E+00
  0.6747E+00
  0.6743E+00
  0.6727E+00
  0.6681E+00
  0.6588E+00
  0.6450E+00
  0.6299E+00
  0.6143E+00
  0.5989E+00
  0.5843E+00
  0.5699E+00
  0.5526E+00
  0.5328E+00
  0.5025E+00
  0.4547E+00
  0.3929E+00
  0.3337E+00
  0.2847E+00
  0.2475E+00
  0.2223E+00
  0.2083E+00
  0.2023E+00
  0.2005E+00
  0.2001E+00
  0.2000E+00
  0.2000E+00
  0.2000E+00
  0.2000E+00
  0.2000E+00
  0.2000E+00
  0.2000E+00
  0.2000E+00
  0.2000E+00
  0.2000E+00
  0.2000E+00
  0.2000E+00
  0.2000E+00
  0.2000E+00
  0.2000E+00
  0.2000E+00
  0.2000E+00
  0.2000E+00
  0.2000E+00
  0.2000E+00
  0.2000E+00
  0.6536E+00
  0.6536E+00
  0.6536E+00
  0.6536E+00
  0.6536E+00
  0.6536E+00
  0.6536E+00
  0.6536E+00
  0.6536E+00
  0.6536E+00
  0.6536E+00
  0.6536E+00
  0.6536E+00
  0.6536E+00
  0.6536E+00
  0.6535E+00
  0.6531E+00
  0.6516E+00
  0.6473E+00
  0.6388E+00
  0.6264E+00
  0.6114E+00
  0.5942E+00
  0.5744E+00
  0.5504E+00
  0.5196E+00
  0.4809E+00
  0.4323E+00
  0.3790E+00
  0.3296E+00
  0.2863E+00
  0.2517E+00
  0.2266E+00
  0.2112E+00
  0.2037E+00
  0.2009E+00
  0.2002E+00
  0.2000E+00
  0.2000E+00
  0.2000E+00
  0.2000E+00
  0.2000E+00
  0.2000E+00
  0.2000E+00
  0.2000E+00
  0.2000E+00
  0.2000E+00
  0.2000E+00
  0.2000E+00
  0.2000E+00
  0.2000E+00
  0.2000E+00
  0.2000E+00
  0.2000E+00
  0.2000E+00
  0.2000E+00
  0.2000E+00
  0.2000E+00
  0.2000E+00
  0.2000E+00
  0.4994E+00
  0.4994E+00
  0.4994E+00
  0.4994E+00
  0.4994E+00
  0.4994E+00
  0.4994E+00
  0.4994E+00
  0.4994E+00
  0.4994E+00
  0.4994E+00
  0.4994E+00
  0.4994E+00
  0.4994E+00
  0.4994E+00
  0.4993E+00
  0.4990E+00
  0.4979E+00
  0.4950E+00
  0.4891E+00
  0.4798E+00
  0.4662E+00
  0.4473E+00
  0.4228E+00
  0.3935E+00
  0.3620E+00
  0.3287E+00
  0.2961E+00
  0.2665E+00
  0.2415E+00
  0.2225E+00
  0.2102E+00
  0.2037E+00
  0.2011E+00
  0.2002E+00
  0.2000E+00
  0.2000E+00
  0.2000E+00
  0.2000E+00
  0.2000E+00
  0.2000E+00
  0.2000E+00
  0.2000E+00
  0.2000E+00
  0.2000E+00
  0.2000E+00
  0.2000E+00
  0.2000E+00
  0.2000E+00
  0.2000E+00
  0.2000E+00
  0.2000E+00
  0.2000E+00
  0.2000E+00
  0.2000E+00
  0.2000E+00
  0.2000E+00
  0.2000E+00
  0.2000E+00
  0.2000E+00
  0.3094E+00
  0.3094E+00
  0.3094E+00
  0.3094E+00
  0.3094E+00
  0.3094E+00
  0.3094E+00
  0.3094E+00
  0.3094E+00
  0.3094E+00
  0.3094E+00
  0.3094E+00
  0.3094E+00
  0.3094E+00
  0.3094E+00
  0.3094E+00
  0.3093E+00
  0.3089E+00
  0.3077E+00
  0.3054E+00
  0.3013E+00
  0.2949E+00
  0.2860E+00
  0.2747E+00
  0.2616E+00
  0.2475E+00
  0.2336E+00
  0.2212E+00
  0.2117E+00
  0.2055E+00
  0.2021E+00
  0.2007E+00
  0.2002E+00
  0.2000E+00
  0.2000E+00
  0.2000E+00
  0.2000E+00
  0.2000E+00
  0.2000E+00
  0.2000E+00
  0.2000E+00
  0.2000E+00
  0.2000E+00
  0.2000E+00
  0.2000E+00
  0.2000E+00
  0.2000E+00
  0.2000E+00
  0.2000E+00
  0.2000E+00
  0.2000E+00
  0.2000E+00
  0.2000E+00
  0.2000E+00
  0.2000E+00
  0.2000E+00
  0.2000E+00
  0.2000E+00
  0.2000E+00
  0.2000E+00
  0.2198E+00
  0.2198E+00
  0.2198E+00
  0.2198E+00
  0.2198E+00
  0.2198E+00
  0.2198E+00
  0.2198E+00
  0.2198E+00
  0.2198E+00
  0.2198E+00
  0.2198E+00
  0.2198E+00
  0.2198E+00
  0.2198E+00
  0.2198E+00
  0.2197E+00
  0.2196E+00
  0.2193E+00
  0.2187E+00
  0.2176E+00
  0.2158E+00
  0.2134E+00
  0.2105E+00
  0.2075E+00
  0.2048E+00
  0.2026E+00
  0.2013E+00
  0.2005E+00
  0.2002E+00
  0.2001E+00
  0.2000E+00
  0.2000E+00
  0.2000E+00
  0.2000E+00
  0.2000E+00
  0.2000E+00
  0.2000E+00
  0.2000E+00
  0.2000E+00
  0.2000E+00
  0.2000E+00
  0.2000E+00
  0.2000E+00
  0.2000E+00
  0.2000E+00
  0.2000E+00
  0.2000E+00
  0.2000E+00
  0.2000E+00
  0.2000E+00
  0.2000E+00
  0.2000E+00
  0.2000E+00
  0.2000E+00
  0.2000E+00
  0.2000E+00
  0.2000E+00
  0.2000E+00
  0.2000E+00
  0.2006E+00
  0.2006E+00
  0.2006E+00
  0.2006E+00
  0.2006E+00
  0.2006E+00
  0.2006E+00
  0.2006E+00
  0.2006E+00
  0.2006E+00
  0.2006E+00
  0.2006E+00
  0.2006E+00
  0.2006E+00
  0.2006E+00
  0.2006E+00
  0.2006E+00
  0.2006E+00
  0.2006E+00
  0.2005E+00
  0.2005E+00
  0.2004E+00
  0.2003E+00
  0.2002E+00
  0.2001E+00
  0.2001E+00
  0.2000E+00
  0.2000E+00
  0.2000E+00
  0.2000E+00
  0.2000E+00
  0.2000E+00
  0.2000E+00
  0.2000E+00
  0.2000E+00
  0.2000E+00
  0.2000E+00
  0.2000E+00
  0.2000E+00
  0.2000E+00
  0.2000E+00
  0.2000E+00
  0.2000E+00
  0.2000E+00
  0.2000E+00
  0.2000E+00
  0.2000E+00
  0.2000E+00
  0.2000E+00
  0.2000E+00
  0.2000E+00
  0.2000E+00
  0.2000E+00
  0.2000E+00
  0.2000E+00
  0.2000E+00
  0.2000E+00
  0.2000E+00
  0.2000E+00
  0.2000E+00
  0.2000E+00
  0.2000E+00
  0.2000E+00
  0.2000E+00
  0.2000E+00
  0.2000E+00
  0.2000E+00
  0.2000E+00
  0.2000E+00
  0.2000E+00
  0.2000E+00
  0.2000E+00
  0.2000E+00
  0.2000E+00
  0.2000E+00
  0.2000E+00
  0.2000E+00
  0.2000E+00
  0.2000E+00
  0.2000E+00
  0.2000E+00
  0.2000E+00
  0.2000E+00
  0.2000E+00
  0.2000E+00
  0.2000E+00
  0.2000E+00
  0.2000E+00
  0.2000E+00
  0.2000E+00
  0.2000E+00
  0.2000E+00
  0.2000E+00
  0.2000E+00
  0.2000E+00
  0.2000E+00
  0.2000E+00
  0.2000E+00
  0.2000E+00
  0.2000E+00
  0.2000E+00
  0.2000E+00
  0.2000E+00
  0.2000E+00
  0.2000E+00
  0.2000E+00
  0.2000E+00
  0.2000E+00
  0.2000E+00
  0.2000E+00
  0.2000E+00
  0.2000E+00
  0.2000E+00
  0.2000E+00
  0.2000E+00
  0.2000E+00
  0.2000E+00
  0.2000E+00
  0.2000E+00
  0.2000E+00
  0.2000E+00
  0.2000E+00
  0.2000E+00
  0.2000E+00
  0.2000E+00
  0.2000E+00
  0.2000E+00
  0.2000E+00
  0.2000E+00
  0.2000E+00
  0.2000E+00
  0.2000E+00
  0.2000E+00
  0.2000E+00
  0.2000E+00
  0.2000E+00
  0.2000E+00
  0.2000E+00
  0.2000E+00
  0.2000E+00
  0.2000E+00
  0.2000E+00
  0.2000E+00
  0.2000E+00
  0.2000E+00
  0.2000E+00
  0.2000E+00
  0.2000E+00
  0.2000E+00
  0.2000E+00
  0.2000E+00
  0.2000E+00
  0.2000E+00
  0.2000E+00
  0.2000E+00
  0.2000E+00
  0.2000E+00
  0.2000E+00
  0.2000E+00
  0.2000E+00
  0.2000E+00
  0.2000E+00
  0.2000E+00
  0.2000E+00
  0.2000E+00
  0.2000E+00
  0.2000E+00
  0.2000E+00
  0.2000E+00
  0.2000E+00
  0.2000E+00
  0.2000E+00
  0.2000E+00
  0.2000E+00
  0.2000E+00
  0.2000E+00
  0.2000E+00
  0.2000E+00
  0.2000E+00
  0.2000E+00
  0.2000E+00
  0.2000E+00
  0.2000E+00
  0.2000E+00