# vtk DataFile Version 3.0
vtk output
ASCII
DATASET RECTILINEAR_GRID
DIMENSIONS          61          61 1
X_COORDINATES    61 double
  0.0000E+00
  0.1667E+00
  0.3333E+00
  0.5000E+00
  0.6667E+00
  0.8333E+00
  0.1000E+01
  0.1167E+01
  0.1333E+01
  0.1500E+01
  0.1667E+01
  0.1833E+01
  0.2000E+01
  0.2167E+01
  0.2333E+01
  0.2500E+01
  0.2667E+01
  0.2833E+01
  0.3000E+01
  0.3167E+01
  0.3333E+01
  0.3500E+01
  0.3667E+01
  0.3833E+01
  0.4000E+01
  0.4167E+01
  0.4333E+01
  0.4500E+01
  0.4667E+01
  0.4833E+01
  0.5000E+01
  0.5167E+01
  0.5333E+01
  0.5500E+01
  0.5667E+01
  0.5833E+01
  0.6000E+01
  0.6167E+01
  0.6333E+01
  0.6500E+01
  0.6667E+01
  0.6833E+01
  0.7000E+01
  0.7167E+01
  0.7333E+01
  0.7500E+01
  0.7667E+01
  0.7833E+01
  0.8000E+01
  0.8167E+01
  0.8333E+01
  0.8500E+01
  0.8667E+01
  0.8833E+01
  0.9000E+01
  0.9167E+01
  0.9333E+01
  0.9500E+01
  0.9667E+01
  0.9833E+01
  0.1000E+02
Y_COORDINATES    61 double
  0.0000E+00
  0.1667E+00
  0.3333E+00
  0.5000E+00
  0.6667E+00
  0.8333E+00
  0.1000E+01
  0.1167E+01
  0.1333E+01
  0.1500E+01
  0.1667E+01
  0.1833E+01
  0.2000E+01
  0.2167E+01
  0.2333E+01
  0.2500E+01
  0.2667E+01
  0.2833E+01
  0.3000E+01
  0.3167E+01
  0.3333E+01
  0.3500E+01
  0.3667E+01
  0.3833E+01
  0.4000E+01
  0.4167E+01
  0.4333E+01
  0.4500E+01
  0.4667E+01
  0.4833E+01
  0.5000E+01
  0.5167E+01
  0.5333E+01
  0.5500E+01
  0.5667E+01
  0.5833E+01
  0.6000E+01
  0.6167E+01
  0.6333E+01
  0.6500E+01
  0.6667E+01
  0.6833E+01
  0.7000E+01
  0.7167E+01
  0.7333E+01
  0.7500E+01
  0.7667E+01
  0.7833E+01
  0.8000E+01
  0.8167E+01
  0.8333E+01
  0.8500E+01
  0.8667E+01
  0.8833E+01
  0.9000E+01
  0.9167E+01
  0.9333E+01
  0.9500E+01
  0.9667E+01
  0.9833E+01
  0.1000E+02
Z_COORDINATES 1 double
0
CELL_DATA                 3600
FIELD FieldData 4
density 1                 3600 double
  0.1522E+01
  0.1522E+01
  0.1522E+01
  0.1522E+01
  0.1521E+01
  0.1519E+01
  0.1514E+01
  0.1501E+01
  0.1479E+01
  0.1446E+01
  0.1403E+01
  0.1356E+01
  0.1307E+01
  0.1259E+01
  0.1211E+01
  0.1164E+01
  0.1118E+01
  0.1074E+01
  0.1032E+01
  0.9916E+00
  0.9527E+00
  0.9155E+00
  0.8800E+00
  0.8461E+00
  0.8137E+00
  0.7828E+00
  0.7532E+00
  0.7249E+00
  0.6979E+00
  0.6721E+00
  0.6475E+00
  0.6239E+00
  0.6015E+00
  0.5802E+00
  0.5599E+00
  0.5407E+00
  0.5227E+00
  0.5059E+00
  0.4905E+00
  0.4770E+00
  0.4671E+00
  0.4616E+00
  0.4616E+00
  0.4657E+00
  0.4730E+00
  0.4805E+00
  0.4881E+00
  0.4961E+00
  0.5047E+00
  0.5161E+00
  0.5322E+00
  0.5550E+00
  0.5805E+00
  0.5856E+00
  0.5729E+00
  0.5860E+00
  0.6806E+00
  0.9085E+00
  0.1183E+01
  0.1157E+01
  0.1521E+01
  0.1521E+01
  0.1521E+01
  0.1521E+01
  0.1520E+01
  0.1518E+01
  0.1513E+01
  0.1501E+01
  0.1478E+01
  0.1445E+01
  0.1403E+01
  0.1356E+01
  0.1307E+01
  0.1258E+01
  0.1210E+01
  0.1163E+01
  0.1118E+01
  0.1074E+01
  0.1032E+01
  0.9911E+00
  0.9522E+00
  0.9151E+00
  0.8796E+00
  0.8456E+00
  0.8132E+00
  0.7823E+00
  0.7527E+00
  0.7244E+00
  0.6974E+00
  0.6716E+00
  0.6470E+00
  0.6234E+00
  0.6010E+00
  0.5796E+00
  0.5594E+00
  0.5402E+00
  0.5222E+00
  0.5054E+00
  0.4899E+00
  0.4765E+00
  0.4665E+00
  0.4610E+00
  0.4609E+00
  0.4647E+00
  0.4720E+00
  0.4796E+00
  0.4874E+00
  0.4958E+00
  0.5053E+00
  0.5178E+00
  0.5354E+00
  0.5596E+00
  0.5846E+00
  0.5884E+00
  0.5736E+00
  0.5856E+00
  0.6796E+00
  0.9062E+00
  0.1173E+01
  0.1154E+01
  0.1519E+01
  0.1519E+01
  0.1519E+01
  0.1519E+01
  0.1519E+01
  0.1517E+01
  0.1511E+01
  0.1499E+01
  0.1477E+01
  0.1444E+01
  0.1402E+01
  0.1355E+01
  0.1306E+01
  0.1257E+01
  0.1209E+01
  0.1162E+01
  0.1117E+01
  0.1073E+01
  0.1031E+01
  0.9901E+00
  0.9512E+00
  0.9141E+00
  0.8786E+00
  0.8447E+00
  0.8123E+00
  0.7813E+00
  0.7517E+00
  0.7235E+00
  0.6965E+00
  0.6706E+00
  0.6460E+00
  0.6224E+00
  0.6000E+00
  0.5786E+00
  0.5583E+00
  0.5391E+00
  0.5211E+00
  0.5043E+00
  0.4889E+00
  0.4754E+00
  0.4653E+00
  0.4596E+00
  0.4594E+00
  0.4629E+00
  0.4701E+00
  0.4779E+00
  0.4861E+00
  0.4954E+00
  0.5068E+00
  0.5217E+00
  0.5422E+00
  0.5690E+00
  0.5922E+00
  0.5940E+00
  0.5738E+00
  0.5841E+00
  0.6752E+00
  0.9033E+00
  0.1170E+01
  0.1150E+01
  0.1517E+01
  0.1517E+01
  0.1517E+01
  0.1517E+01
  0.1516E+01
  0.1514E+01
  0.1509E+01
  0.1497E+01
  0.1475E+01
  0.1442E+01
  0.1400E+01
  0.1353E+01
  0.1304E+01
  0.1255E+01
  0.1207E+01
  0.1161E+01
  0.1115E+01
  0.1071E+01
  0.1029E+01
  0.9886E+00
  0.9497E+00
  0.9126E+00
  0.8771E+00
  0.8432E+00
  0.8108E+00
  0.7798E+00
  0.7502E+00
  0.7220E+00
  0.6950E+00
  0.6691E+00
  0.6445E+00
  0.6209E+00
  0.5985E+00
  0.5771E+00
  0.5568E+00
  0.5376E+00
  0.5195E+00
  0.5027E+00
  0.4872E+00
  0.4737E+00
  0.4635E+00
  0.4575E+00
  0.4571E+00
  0.4603E+00
  0.4674E+00
  0.4755E+00
  0.4842E+00
  0.4950E+00
  0.5092E+00
  0.5282E+00
  0.5533E+00
  0.5833E+00
  0.6026E+00
  0.6013E+00
  0.5738E+00
  0.5814E+00
  0.6695E+00
  0.8961E+00
  0.1154E+01
  0.1149E+01
  0.1513E+01
  0.1513E+01
  0.1513E+01
  0.1513E+01
  0.1513E+01
  0.1511E+01
  0.1506E+01
  0.1494E+01
  0.1472E+01
  0.1439E+01
  0.1398E+01
  0.1351E+01
  0.1302E+01
  0.1253E+01
  0.1205E+01
  0.1159E+01
  0.1113E+01
  0.1069E+01
  0.1027E+01
  0.9865E+00
  0.9476E+00
  0.9105E+00
  0.8750E+00
  0.8411E+00
  0.8087E+00
  0.7778E+00
  0.7482E+00
  0.7199E+00
  0.6929E+00
  0.6671E+00
  0.6424E+00
  0.6188E+00
  0.5964E+00
  0.5749E+00
  0.5546E+00
  0.5354E+00
  0.5173E+00
  0.5004E+00
  0.4850E+00
  0.4713E+00
  0.4610E+00
  0.4546E+00
  0.4540E+00
  0.4568E+00
  0.4637E+00
  0.4721E+00
  0.4820E+00
  0.4951E+00
  0.5135E+00
  0.5383E+00
  0.5693E+00
  0.6017E+00
  0.6152E+00
  0.6102E+00
  0.5729E+00
  0.5773E+00
  0.6602E+00
  0.8860E+00
  0.1139E+01
  0.1147E+01
  0.1509E+01
  0.1509E+01
  0.1509E+01
  0.1509E+01
  0.1508E+01
  0.1506E+01
  0.1501E+01
  0.1490E+01
  0.1468E+01
  0.1436E+01
  0.1394E+01
  0.1348E+01
  0.1299E+01
  0.1250E+01
  0.1202E+01
  0.1156E+01
  0.1110E+01
  0.1066E+01
  0.1024E+01
  0.9837E+00
  0.9449E+00
  0.9078E+00
  0.8723E+00
  0.8384E+00
  0.8060E+00
  0.7751E+00
  0.7455E+00
  0.7172E+00
  0.6902E+00
  0.6643E+00
  0.6397E+00
  0.6161E+00
  0.5936E+00
  0.5722E+00
  0.5518E+00
  0.5325E+00
  0.5144E+00
  0.4975E+00
  0.4820E+00
  0.4682E+00
  0.4577E+00
  0.4508E+00
  0.4500E+00
  0.4524E+00
  0.4591E+00
  0.4680E+00
  0.4797E+00
  0.4966E+00
  0.5213E+00
  0.5539E+00
  0.5912E+00
  0.6233E+00
  0.6293E+00
  0.6183E+00
  0.5697E+00
  0.5708E+00
  0.6485E+00
  0.8744E+00
  0.1125E+01
  0.1145E+01
  0.1503E+01
  0.1503E+01
  0.1503E+01
  0.1503E+01
  0.1502E+01
  0.1501E+01
  0.1496E+01
  0.1485E+01
  0.1464E+01
  0.1432E+01
  0.1390E+01
  0.1344E+01
  0.1295E+01
  0.1247E+01
  0.1199E+01
  0.1152E+01
  0.1107E+01
  0.1063E+01
  0.1021E+01
  0.9802E+00
  0.9414E+00
  0.9043E+00
  0.8688E+00
  0.8349E+00
  0.8026E+00
  0.7716E+00
  0.7421E+00
  0.7138E+00
  0.6867E+00
  0.6609E+00
  0.6362E+00
  0.6126E+00
  0.5901E+00
  0.5686E+00
  0.5482E+00
  0.5289E+00
  0.5107E+00
  0.4937E+00
  0.4781E+00
  0.4642E+00
  0.4533E+00
  0.4458E+00
  0.4448E+00
  0.4468E+00
  0.4533E+00
  0.4629E+00
  0.4782E+00
  0.5019E+00
  0.5360E+00
  0.5773E+00
  0.6184E+00
  0.6428E+00
  0.6427E+00
  0.6210E+00
  0.5638E+00
  0.5615E+00
  0.6343E+00
  0.8591E+00
  0.1114E+01
  0.1155E+01
  0.1496E+01
  0.1496E+01
  0.1496E+01
  0.1496E+01
  0.1495E+01
  0.1494E+01
  0.1489E+01
  0.1478E+01
  0.1458E+01
  0.1426E+01
  0.1385E+01
  0.1339E+01
  0.1291E+01
  0.1242E+01
  0.1194E+01
  0.1148E+01
  0.1102E+01
  0.1059E+01
  0.1016E+01
  0.9759E+00
  0.9371E+00
  0.9000E+00
  0.8645E+00
  0.8307E+00
  0.7983E+00
  0.7674E+00
  0.7378E+00
  0.7095E+00
  0.6825E+00
  0.6566E+00
  0.6319E+00
  0.6083E+00
  0.5857E+00
  0.5641E+00
  0.5437E+00
  0.5242E+00
  0.5059E+00
  0.4888E+00
  0.4730E+00
  0.4589E+00
  0.4476E+00
  0.4394E+00
  0.4380E+00
  0.4398E+00
  0.4462E+00
  0.4582E+00
  0.4802E+00
  0.5136E+00
  0.5555E+00
  0.6011E+00
  0.6422E+00
  0.6566E+00
  0.6517E+00
  0.6180E+00
  0.5545E+00
  0.5486E+00
  0.6169E+00
  0.8407E+00
  0.1106E+01
  0.1165E+01
  0.1488E+01
  0.1488E+01
  0.1488E+01
  0.1488E+01
  0.1487E+01
  0.1486E+01
  0.1481E+01
  0.1471E+01
  0.1451E+01
  0.1420E+01
  0.1379E+01
  0.1333E+01
  0.1285E+01
  0.1237E+01
  0.1189E+01
  0.1142E+01
  0.1097E+01
  0.1053E+01
  0.1011E+01
  0.9706E+00
  0.9318E+00
  0.8948E+00
  0.8593E+00
  0.8255E+00
  0.7931E+00
  0.7622E+00
  0.7326E+00
  0.7043E+00
  0.6772E+00
  0.6513E+00
  0.6265E+00
  0.6028E+00
  0.5801E+00
  0.5585E+00
  0.5378E+00
  0.5183E+00
  0.4998E+00
  0.4824E+00
  0.4664E+00
  0.4519E+00
  0.4401E+00
  0.4311E+00
  0.4295E+00
  0.4311E+00
  0.4386E+00
  0.4569E+00
  0.4885E+00
  0.5314E+00
  0.5790E+00
  0.6248E+00
  0.6594E+00
  0.6643E+00
  0.6530E+00
  0.6071E+00
  0.5405E+00
  0.5327E+00
  0.5978E+00
  0.8174E+00
  0.1092E+01
  0.1163E+01
  0.1478E+01
  0.1478E+01
  0.1478E+01
  0.1478E+01
  0.1477E+01
  0.1476E+01
  0.1471E+01
  0.1461E+01
  0.1442E+01
  0.1412E+01
  0.1372E+01
  0.1326E+01
  0.1278E+01
  0.1230E+01
  0.1182E+01
  0.1136E+01
  0.1090E+01
  0.1047E+01
  0.1005E+01
  0.9641E+00
  0.9254E+00
  0.8883E+00
  0.8529E+00
  0.8190E+00
  0.7866E+00
  0.7557E+00
  0.7260E+00
  0.6977E+00
  0.6705E+00
  0.6445E+00
  0.6196E+00
  0.5958E+00
  0.5729E+00
  0.5511E+00
  0.5303E+00
  0.5105E+00
  0.4917E+00
  0.4741E+00
  0.4578E+00
  0.4428E+00
  0.4304E+00
  0.4205E+00
  0.4192E+00
  0.4216E+00
  0.4332E+00
  0.4613E+00
  0.5053E+00
  0.5567E+00
  0.6044E+00
  0.6456E+00
  0.6680E+00
  0.6668E+00
  0.6444E+00
  0.5901E+00
  0.5224E+00
  0.5155E+00
  0.5784E+00
  0.7895E+00
  0.1070E+01
  0.1159E+01
  0.1466E+01
  0.1466E+01
  0.1466E+01
  0.1466E+01
  0.1465E+01
  0.1464E+01
  0.1460E+01
  0.1450E+01
  0.1432E+01
  0.1402E+01
  0.1363E+01
  0.1318E+01
  0.1270E+01
  0.1222E+01
  0.1174E+01
  0.1128E+01
  0.1082E+01
  0.1039E+01
  0.9966E+00
  0.9562E+00
  0.9174E+00
  0.8804E+00
  0.8449E+00
  0.8110E+00
  0.7785E+00
  0.7475E+00
  0.7178E+00
  0.6893E+00
  0.6620E+00
  0.6359E+00
  0.6108E+00
  0.5867E+00
  0.5637E+00
  0.5417E+00
  0.5206E+00
  0.5005E+00
  0.4815E+00
  0.4635E+00
  0.4468E+00
  0.4313E+00
  0.4182E+00
  0.4081E+00
  0.4074E+00
  0.4129E+00
  0.4345E+00
  0.4768E+00
  0.5298E+00
  0.5822E+00
  0.6254E+00
  0.6594E+00
  0.6692E+00
  0.6635E+00
  0.6267E+00
  0.5660E+00
  0.5036E+00
  0.4984E+00
  0.5583E+00
  0.7586E+00
  0.1046E+01
  0.1166E+01
  0.1451E+01
  0.1451E+01
  0.1451E+01
  0.1451E+01
  0.1451E+01
  0.1450E+01
  0.1446E+01
  0.1437E+01
  0.1419E+01
  0.1390E+01
  0.1352E+01
  0.1307E+01
  0.1260E+01
  0.1212E+01
  0.1164E+01
  0.1118E+01
  0.1072E+01
  0.1029E+01
  0.9867E+00
  0.9463E+00
  0.9075E+00
  0.8704E+00
  0.8348E+00
  0.8008E+00
  0.7683E+00
  0.7371E+00
  0.7073E+00
  0.6786E+00
  0.6512E+00
  0.6248E+00
  0.5996E+00
  0.5753E+00
  0.5520E+00
  0.5297E+00
  0.5084E+00
  0.4881E+00
  0.4687E+00
  0.4505E+00
  0.4333E+00
  0.4174E+00
  0.4027E+00
  0.3952E+00
  0.3967E+00
  0.4111E+00
  0.4484E+00
  0.5020E+00
  0.5582E+00
  0.6046E+00
  0.6407E+00
  0.6643E+00
  0.6662E+00
  0.6507E+00
  0.5989E+00
  0.5374E+00
  0.4864E+00
  0.4842E+00
  0.5387E+00
  0.7256E+00
  0.1013E+01
  0.1180E+01
  0.1434E+01
  0.1434E+01
  0.1434E+01
  0.1434E+01
  0.1433E+01
  0.1432E+01
  0.1429E+01
  0.1420E+01
  0.1404E+01
  0.1376E+01
  0.1338E+01
  0.1294E+01
  0.1247E+01
  0.1199E+01
  0.1151E+01
  0.1105E+01
  0.1060E+01
  0.1016E+01
  0.9742E+00
  0.9337E+00
  0.8949E+00
  0.8577E+00
  0.8221E+00
  0.7880E+00
  0.7554E+00
  0.7241E+00
  0.6941E+00
  0.6653E+00
  0.6376E+00
  0.6111E+00
  0.5856E+00
  0.5612E+00
  0.5377E+00
  0.5152E+00
  0.4936E+00
  0.4731E+00
  0.4536E+00
  0.4352E+00
  0.4175E+00
  0.4011E+00
  0.3859E+00
  0.3839E+00
  0.3926E+00
  0.4229E+00
  0.4743E+00
  0.5336E+00
  0.5844E+00
  0.6218E+00
  0.6510E+00
  0.6630E+00
  0.6587E+00
  0.6257E+00
  0.5654E+00
  0.5076E+00
  0.4737E+00
  0.4754E+00
  0.5218E+00
  0.6903E+00
  0.9630E+00
  0.1178E+01
  0.1412E+01
  0.1412E+01
  0.1412E+01
  0.1412E+01
  0.1412E+01
  0.1411E+01
  0.1408E+01
  0.1400E+01
  0.1384E+01
  0.1357E+01
  0.1321E+01
  0.1277E+01
  0.1230E+01
  0.1183E+01
  0.1135E+01
  0.1089E+01
  0.1044E+01
  0.1001E+01
  0.9586E+00
  0.9181E+00
  0.8793E+00
  0.8420E+00
  0.8063E+00
  0.7722E+00
  0.7394E+00
  0.7080E+00
  0.6779E+00
  0.6490E+00
  0.6212E+00
  0.5945E+00
  0.5690E+00
  0.5444E+00
  0.5208E+00
  0.4982E+00
  0.4766E+00
  0.4560E+00
  0.4366E+00
  0.4178E+00
  0.4001E+00
  0.3817E+00
  0.3735E+00
  0.3784E+00
  0.4018E+00
  0.4488E+00
  0.5088E+00
  0.5638E+00
  0.6045E+00
  0.6347E+00
  0.6551E+00
  0.6571E+00
  0.6427E+00
  0.5905E+00
  0.5286E+00
  0.4811E+00
  0.4678E+00
  0.4724E+00
  0.5098E+00
  0.6498E+00
  0.8967E+00
  0.1163E+01
  0.1386E+01
  0.1386E+01
  0.1386E+01
  0.1386E+01
  0.1385E+01
  0.1385E+01
  0.1382E+01
  0.1375E+01
  0.1360E+01
  0.1335E+01
  0.1299E+01
  0.1256E+01
  0.1210E+01
  0.1163E+01
  0.1116E+01
  0.1070E+01
  0.1025E+01
  0.9814E+00
  0.9395E+00
  0.8991E+00
  0.8602E+00
  0.8230E+00
  0.7873E+00
  0.7531E+00
  0.7203E+00
  0.6889E+00
  0.6588E+00
  0.6299E+00
  0.6021E+00
  0.5755E+00
  0.5499E+00
  0.5254E+00
  0.5019E+00
  0.4794E+00
  0.4579E+00
  0.4376E+00
  0.4180E+00
  0.3994E+00
  0.3802E+00
  0.3659E+00
  0.3684E+00
  0.3861E+00
  0.4277E+00
  0.4864E+00
  0.5438E+00
  0.5877E+00
  0.6193E+00
  0.6437E+00
  0.6531E+00
  0.6478E+00
  0.6109E+00
  0.5485E+00
  0.4929E+00
  0.4660E+00
  0.4658E+00
  0.4742E+00
  0.5041E+00
  0.6064E+00
  0.8224E+00
  0.1150E+01
  0.1354E+01
  0.1354E+01
  0.1354E+01
  0.1354E+01
  0.1354E+01
  0.1353E+01
  0.1351E+01
  0.1344E+01
  0.1331E+01
  0.1307E+01
  0.1273E+01
  0.1231E+01
  0.1186E+01
  0.1139E+01
  0.1092E+01
  0.1046E+01
  0.1002E+01
  0.9586E+00
  0.9168E+00
  0.8765E+00
  0.8379E+00
  0.8008E+00
  0.7652E+00
  0.7312E+00
  0.6985E+00
  0.6673E+00
  0.6373E+00
  0.6085E+00
  0.5809E+00
  0.5545E+00
  0.5292E+00
  0.5049E+00
  0.4817E+00
  0.4595E+00
  0.4384E+00
  0.4181E+00
  0.3989E+00
  0.3792E+00
  0.3618E+00
  0.3619E+00
  0.3747E+00
  0.4110E+00
  0.4668E+00
  0.5264E+00
  0.5738E+00
  0.6070E+00
  0.6319E+00
  0.6463E+00
  0.6454E+00
  0.6219E+00
  0.5639E+00
  0.5043E+00
  0.4671E+00
  0.4621E+00
  0.4673E+00
  0.4814E+00
  0.5026E+00
  0.5674E+00
  0.7369E+00
  0.1121E+01
  0.1318E+01
  0.1318E+01
  0.1318E+01
  0.1318E+01
  0.1318E+01
  0.1317E+01
  0.1315E+01
  0.1309E+01
  0.1297E+01
  0.1274E+01
  0.1242E+01
  0.1202E+01
  0.1157E+01
  0.1111E+01
  0.1065E+01
  0.1019E+01
  0.9752E+00
  0.9324E+00
  0.8910E+00
  0.8511E+00
  0.8128E+00
  0.7760E+00
  0.7407E+00
  0.7070E+00
  0.6747E+00
  0.6437E+00
  0.6141E+00
  0.5857E+00
  0.5585E+00
  0.5325E+00
  0.5076E+00
  0.4838E+00
  0.4610E+00
  0.4393E+00
  0.4185E+00
  0.3986E+00
  0.3787E+00
  0.3598E+00
  0.3583E+00
  0.3679E+00
  0.3993E+00
  0.4498E+00
  0.5084E+00
  0.5592E+00
  0.5954E+00
  0.6222E+00
  0.6390E+00
  0.6404E+00
  0.6244E+00
  0.5714E+00
  0.5116E+00
  0.4691E+00
  0.4591E+00
  0.4624E+00
  0.4749E+00
  0.4897E+00
  0.5054E+00
  0.5406E+00
  0.6525E+00
  0.1068E+01
  0.1277E+01
  0.1277E+01
  0.1277E+01
  0.1277E+01
  0.1277E+01
  0.1277E+01
  0.1275E+01
  0.1270E+01
  0.1258E+01
  0.1238E+01
  0.1207E+01
  0.1168E+01
  0.1125E+01
  0.1080E+01
  0.1034E+01
  0.9895E+00
  0.9460E+00
  0.9038E+00
  0.8629E+00
  0.8235E+00
  0.7857E+00
  0.7495E+00
  0.7147E+00
  0.6815E+00
  0.6497E+00
  0.6193E+00
  0.5902E+00
  0.5624E+00
  0.5357E+00
  0.5103E+00
  0.4859E+00
  0.4627E+00
  0.4405E+00
  0.4192E+00
  0.3989E+00
  0.3785E+00
  0.3592E+00
  0.3569E+00
  0.3638E+00
  0.3920E+00
  0.4402E+00
  0.4972E+00
  0.5462E+00
  0.5818E+00
  0.6102E+00
  0.6303E+00
  0.6345E+00
  0.6211E+00
  0.5717E+00
  0.5128E+00
  0.4696E+00
  0.4570E+00
  0.4591E+00
  0.4694E+00
  0.4836E+00
  0.4967E+00
  0.5099E+00
  0.5260E+00
  0.5753E+00
  0.8974E+00
  0.1234E+01
  0.1234E+01
  0.1234E+01
  0.1234E+01
  0.1234E+01
  0.1233E+01
  0.1232E+01
  0.1227E+01
  0.1217E+01
  0.1199E+01
  0.1170E+01
  0.1133E+01
  0.1090E+01
  0.1046E+01
  0.1002E+01
  0.9581E+00
  0.9153E+00
  0.8738E+00
  0.8337E+00
  0.7950E+00
  0.7579E+00
  0.7223E+00
  0.6883E+00
  0.6557E+00
  0.6246E+00
  0.5948E+00
  0.5664E+00
  0.5393E+00
  0.5133E+00
  0.4885E+00
  0.4648E+00
  0.4423E+00
  0.4205E+00
  0.3998E+00
  0.3790E+00
  0.3592E+00
  0.3565E+00
  0.3626E+00
  0.3868E+00
  0.4300E+00
  0.4878E+00
  0.5420E+00
  0.5784E+00
  0.6048E+00
  0.6222E+00
  0.6272E+00
  0.6152E+00
  0.5675E+00
  0.5101E+00
  0.4685E+00
  0.4556E+00
  0.4569E+00
  0.4654E+00
  0.4788E+00
  0.4912E+00
  0.5023E+00
  0.5127E+00
  0.5165E+00
  0.4995E+00
  0.6467E+00
  0.1189E+01
  0.1189E+01
  0.1189E+01
  0.1189E+01
  0.1189E+01
  0.1189E+01
  0.1188E+01
  0.1184E+01
  0.1175E+01
  0.1158E+01
  0.1131E+01
  0.1096E+01
  0.1055E+01
  0.1012E+01
  0.9690E+00
  0.9262E+00
  0.8844E+00
  0.8438E+00
  0.8045E+00
  0.7667E+00
  0.7304E+00
  0.6956E+00
  0.6623E+00
  0.6305E+00
  0.6002E+00
  0.5712E+00
  0.5435E+00
  0.5170E+00
  0.4918E+00
  0.4677E+00
  0.4447E+00
  0.4226E+00
  0.4014E+00
  0.3799E+00
  0.3600E+00
  0.3567E+00
  0.3625E+00
  0.3859E+00
  0.4254E+00
  0.4768E+00
  0.5287E+00
  0.5702E+00
  0.6014E+00
  0.6235E+00
  0.6245E+00
  0.6108E+00
  0.5629E+00
  0.5063E+00
  0.4670E+00
  0.4559E+00
  0.4564E+00
  0.4631E+00
  0.4757E+00
  0.4871E+00
  0.4969E+00
  0.5061E+00
  0.5112E+00
  0.4993E+00
  0.4273E+00
  0.4669E+00
  0.1146E+01
  0.1146E+01
  0.1146E+01
  0.1146E+01
  0.1146E+01
  0.1146E+01
  0.1144E+01
  0.1141E+01
  0.1134E+01
  0.1118E+01
  0.1094E+01
  0.1060E+01
  0.1021E+01
  0.9794E+00
  0.9372E+00
  0.8954E+00
  0.8546E+00
  0.8149E+00
  0.7765E+00
  0.7396E+00
  0.7042E+00
  0.6702E+00
  0.6378E+00
  0.6068E+00
  0.5772E+00
  0.5489E+00
  0.5220E+00
  0.4963E+00
  0.4717E+00
  0.4481E+00
  0.4256E+00
  0.4039E+00
  0.3817E+00
  0.3624E+00
  0.3581E+00
  0.3638E+00
  0.3868E+00
  0.4254E+00
  0.4757E+00
  0.5249E+00
  0.5622E+00
  0.5901E+00
  0.6131E+00
  0.6225E+00
  0.6121E+00
  0.5634E+00
  0.5050E+00
  0.4673E+00
  0.4578E+00
  0.4579E+00
  0.4638E+00
  0.4745E+00
  0.4839E+00
  0.4922E+00
  0.5006E+00
  0.5059E+00
  0.5002E+00
  0.4559E+00
  0.3652E+00
  0.3460E+00
  0.1105E+01
  0.1105E+01
  0.1105E+01
  0.1105E+01
  0.1105E+01
  0.1105E+01
  0.1104E+01
  0.1101E+01
  0.1095E+01
  0.1081E+01
  0.1058E+01
  0.1026E+01
  0.9889E+00
  0.9486E+00
  0.9075E+00
  0.8667E+00
  0.8269E+00
  0.7882E+00
  0.7508E+00
  0.7147E+00
  0.6801E+00
  0.6471E+00
  0.6154E+00
  0.5852E+00
  0.5564E+00
  0.5288E+00
  0.5024E+00
  0.4772E+00
  0.4531E+00
  0.4301E+00
  0.4077E+00
  0.3847E+00
  0.3673E+00
  0.3619E+00
  0.3679E+00
  0.3919E+00
  0.4304E+00
  0.4771E+00
  0.5251E+00
  0.5626E+00
  0.5900E+00
  0.6115E+00
  0.6173E+00
  0.6079E+00
  0.5638E+00
  0.5069E+00
  0.4700E+00
  0.4611E+00
  0.4609E+00
  0.4664E+00
  0.4755E+00
  0.4827E+00
  0.4887E+00
  0.4953E+00
  0.5010E+00
  0.4981E+00
  0.4633E+00
  0.3896E+00
  0.3105E+00
  0.2713E+00
  0.1070E+01
  0.1070E+01
  0.1070E+01
  0.1070E+01
  0.1070E+01
  0.1070E+01
  0.1069E+01
  0.1067E+01
  0.1061E+01
  0.1049E+01
  0.1028E+01
  0.9983E+00
  0.9624E+00
  0.9233E+00
  0.8832E+00
  0.8434E+00
  0.8044E+00
  0.7665E+00
  0.7298E+00
  0.6945E+00
  0.6605E+00
  0.6280E+00
  0.5969E+00
  0.5672E+00
  0.5388E+00
  0.5117E+00
  0.4858E+00
  0.4610E+00
  0.4372E+00
  0.4136E+00
  0.3913E+00
  0.3760E+00
  0.3690E+00
  0.3753E+00
  0.3993E+00
  0.4397E+00
  0.4879E+00
  0.5295E+00
  0.5627E+00
  0.5905E+00
  0.6123E+00
  0.6172E+00
  0.6105E+00
  0.5685E+00
  0.5104E+00
  0.4734E+00
  0.4649E+00
  0.4647E+00
  0.4698E+00
  0.4776E+00
  0.4831E+00
  0.4871E+00
  0.4920E+00
  0.4967E+00
  0.4953E+00
  0.4671E+00
  0.3998E+00
  0.3258E+00
  0.2649E+00
  0.2306E+00
  0.1045E+01
  0.1045E+01
  0.1045E+01
  0.1045E+01
  0.1045E+01
  0.1045E+01
  0.1045E+01
  0.1043E+01
  0.1037E+01
  0.1026E+01
  0.1005E+01
  0.9776E+00
  0.9433E+00
  0.9054E+00
  0.8662E+00
  0.8269E+00
  0.7884E+00
  0.7509E+00
  0.7146E+00
  0.6797E+00
  0.6463E+00
  0.6143E+00
  0.5836E+00
  0.5542E+00
  0.5260E+00
  0.4989E+00
  0.4728E+00
  0.4476E+00
  0.4242E+00
  0.4039E+00
  0.3883E+00
  0.3801E+00
  0.3868E+00
  0.4115E+00
  0.4498E+00
  0.4966E+00
  0.5414E+00
  0.5708E+00
  0.5900E+00
  0.6118E+00
  0.6177E+00
  0.6115E+00
  0.5741E+00
  0.5170E+00
  0.4786E+00
  0.4689E+00
  0.4683E+00
  0.4728E+00
  0.4796E+00
  0.4839E+00
  0.4866E+00
  0.4903E+00
  0.4945E+00
  0.4935E+00
  0.4692E+00
  0.4065E+00
  0.3351E+00
  0.2746E+00
  0.2321E+00
  0.2107E+00
  0.1034E+01
  0.1034E+01
  0.1034E+01
  0.1034E+01
  0.1034E+01
  0.1034E+01
  0.1034E+01
  0.1032E+01
  0.1028E+01
  0.1019E+01
  0.1001E+01
  0.9746E+00
  0.9407E+00
  0.9029E+00
  0.8637E+00
  0.8244E+00
  0.7858E+00
  0.7480E+00
  0.7114E+00
  0.6759E+00
  0.6417E+00
  0.6088E+00
  0.5773E+00
  0.5473E+00
  0.5188E+00
  0.4918E+00
  0.4665E+00
  0.4434E+00
  0.4222E+00
  0.4047E+00
  0.3963E+00
  0.4033E+00
  0.4285E+00
  0.4669E+00
  0.5087E+00
  0.5460E+00
  0.5773E+00
  0.6016E+00
  0.6140E+00
  0.6176E+00
  0.6107E+00
  0.5746E+00
  0.5201E+00
  0.4827E+00
  0.4727E+00
  0.4719E+00
  0.4756E+00
  0.4811E+00
  0.4845E+00
  0.4861E+00
  0.4889E+00
  0.4929E+00
  0.4925E+00
  0.4716E+00
  0.4119E+00
  0.3420E+00
  0.2819E+00
  0.2381E+00
  0.2125E+00
  0.2028E+00
  0.1033E+01
  0.1033E+01
  0.1033E+01
  0.1033E+01
  0.1033E+01
  0.1033E+01
  0.1033E+01
  0.1031E+01
  0.1027E+01
  0.1019E+01
  0.1002E+01
  0.9761E+00
  0.9428E+00
  0.9052E+00
  0.8659E+00
  0.8264E+00
  0.7875E+00
  0.7495E+00
  0.7126E+00
  0.6769E+00
  0.6424E+00
  0.6093E+00
  0.5775E+00
  0.5473E+00
  0.5186E+00
  0.4918E+00
  0.4669E+00
  0.4444E+00
  0.4258E+00
  0.4179E+00
  0.4257E+00
  0.4503E+00
  0.4866E+00
  0.5263E+00
  0.5593E+00
  0.5822E+00
  0.6034E+00
  0.6221E+00
  0.6222E+00
  0.6092E+00
  0.5680E+00
  0.5170E+00
  0.4827E+00
  0.4745E+00
  0.4746E+00
  0.4780E+00
  0.4827E+00
  0.4851E+00
  0.4859E+00
  0.4878E+00
  0.4914E+00
  0.4912E+00
  0.4723E+00
  0.4154E+00
  0.3472E+00
  0.2873E+00
  0.2430E+00
  0.2157E+00
  0.2036E+00
  0.2005E+00
  0.1034E+01
  0.1034E+01
  0.1034E+01
  0.1034E+01
  0.1034E+01
  0.1034E+01
  0.1033E+01
  0.1032E+01
  0.1029E+01
  0.1021E+01
  0.1005E+01
  0.9807E+00
  0.9484E+00
  0.9112E+00
  0.8721E+00
  0.8324E+00
  0.7932E+00
  0.7546E+00
  0.7171E+00
  0.6808E+00
  0.6457E+00
  0.6122E+00
  0.5802E+00
  0.5498E+00
  0.5212E+00
  0.4946E+00
  0.4709E+00
  0.4520E+00
  0.4458E+00
  0.4538E+00
  0.4769E+00
  0.5096E+00
  0.5440E+00
  0.5735E+00
  0.5955E+00
  0.6106E+00
  0.6224E+00
  0.6236E+00
  0.6116E+00
  0.5638E+00
  0.5101E+00
  0.4783E+00
  0.4723E+00
  0.4745E+00
  0.4793E+00
  0.4838E+00
  0.4857E+00
  0.4860E+00
  0.4873E+00
  0.4903E+00
  0.4901E+00
  0.4723E+00
  0.4167E+00
  0.3500E+00
  0.2912E+00
  0.2468E+00
  0.2183E+00
  0.2048E+00
  0.2008E+00
  0.2001E+00
  0.1036E+01
  0.1036E+01
  0.1036E+01
  0.1036E+01
  0.1036E+01
  0.1036E+01
  0.1036E+01
  0.1035E+01
  0.1032E+01
  0.1025E+01
  0.1010E+01
  0.9872E+00
  0.9558E+00
  0.9191E+00
  0.8799E+00
  0.8399E+00
  0.8000E+00
  0.7608E+00
  0.7226E+00
  0.6857E+00
  0.6503E+00
  0.6165E+00
  0.5846E+00
  0.5548E+00
  0.5272E+00
  0.5030E+00
  0.4846E+00
  0.4794E+00
  0.4865E+00
  0.5070E+00
  0.5355E+00
  0.5643E+00
  0.5879E+00
  0.6068E+00
  0.6228E+00
  0.6308E+00
  0.6269E+00
  0.6107E+00
  0.5627E+00
  0.5069E+00
  0.4736E+00
  0.4686E+00
  0.4718E+00
  0.4782E+00
  0.4838E+00
  0.4860E+00
  0.4861E+00
  0.4871E+00
  0.4896E+00
  0.4893E+00
  0.4724E+00
  0.4180E+00
  0.3519E+00
  0.2935E+00
  0.2495E+00
  0.2205E+00
  0.2059E+00
  0.2011E+00
  0.2001E+00
  0.2000E+00
  0.1041E+01
  0.1041E+01
  0.1041E+01
  0.1041E+01
  0.1041E+01
  0.1041E+01
  0.1040E+01
  0.1040E+01
  0.1037E+01
  0.1031E+01
  0.1017E+01
  0.9953E+00
  0.9647E+00
  0.9280E+00
  0.8883E+00
  0.8477E+00
  0.8071E+00
  0.7674E+00
  0.7287E+00
  0.6915E+00
  0.6560E+00
  0.6226E+00
  0.5916E+00
  0.5634E+00
  0.5391E+00
  0.5211E+00
  0.5155E+00
  0.5217E+00
  0.5389E+00
  0.5624E+00
  0.5860E+00
  0.6046E+00
  0.6194E+00
  0.6321E+00
  0.6392E+00
  0.6342E+00
  0.6154E+00
  0.5630E+00
  0.5052E+00
  0.4703E+00
  0.4647E+00
  0.4682E+00
  0.4757E+00
  0.4827E+00
  0.4858E+00
  0.4862E+00
  0.4871E+00
  0.4892E+00
  0.4887E+00
  0.4720E+00
  0.4183E+00
  0.3531E+00
  0.2952E+00
  0.2512E+00
  0.2220E+00
  0.2068E+00
  0.2013E+00
  0.2002E+00
  0.2000E+00
  0.2000E+00
  0.1046E+01
  0.1046E+01
  0.1046E+01
  0.1046E+01
  0.1046E+01
  0.1046E+01
  0.1046E+01
  0.1045E+01
  0.1043E+01
  0.1037E+01
  0.1025E+01
  0.1004E+01
  0.9738E+00
  0.9372E+00
  0.8971E+00
  0.8559E+00
  0.8147E+00
  0.7744E+00
  0.7355E+00
  0.6984E+00
  0.6636E+00
  0.6314E+00
  0.6024E+00
  0.5778E+00
  0.5596E+00
  0.5530E+00
  0.5579E+00
  0.5715E+00
  0.5901E+00
  0.6081E+00
  0.6230E+00
  0.6349E+00
  0.6438E+00
  0.6464E+00
  0.6407E+00
  0.6212E+00
  0.5677E+00
  0.5065E+00
  0.4675E+00
  0.4609E+00
  0.4645E+00
  0.4729E+00
  0.4810E+00
  0.4851E+00
  0.4862E+00
  0.4873E+00
  0.4893E+00
  0.4886E+00
  0.4716E+00
  0.4182E+00
  0.3533E+00
  0.2961E+00
  0.2524E+00
  0.2231E+00
  0.2074E+00
  0.2016E+00
  0.2002E+00
  0.2000E+00
  0.2000E+00
  0.2000E+00
  0.1054E+01
  0.1054E+01
  0.1054E+01
  0.1054E+01
  0.1054E+01
  0.1054E+01
  0.1054E+01
  0.1053E+01
  0.1051E+01
  0.1046E+01
  0.1035E+01
  0.1014E+01
  0.9846E+00
  0.9478E+00
  0.9071E+00
  0.8651E+00
  0.8233E+00
  0.7826E+00
  0.7439E+00
  0.7075E+00
  0.6741E+00
  0.6443E+00
  0.6190E+00
  0.6005E+00
  0.5917E+00
  0.5947E+00
  0.6050E+00
  0.6187E+00
  0.6323E+00
  0.6431E+00
  0.6515E+00
  0.6557E+00
  0.6532E+00
  0.6456E+00
  0.6238E+00
  0.5717E+00
  0.5103E+00
  0.4671E+00
  0.4578E+00
  0.4607E+00
  0.4699E+00
  0.4794E+00
  0.4844E+00
  0.4860E+00
  0.4874E+00
  0.4898E+00
  0.4889E+00
  0.4717E+00
  0.4182E+00
  0.3534E+00
  0.2963E+00
  0.2531E+00
  0.2238E+00
  0.2079E+00
  0.2018E+00
  0.2003E+00
  0.2000E+00
  0.2000E+00
  0.2000E+00
  0.2000E+00
  0.1064E+01
  0.1064E+01
  0.1064E+01
  0.1064E+01
  0.1064E+01
  0.1064E+01
  0.1064E+01
  0.1063E+01
  0.1061E+01
  0.1057E+01
  0.1046E+01
  0.1026E+01
  0.9967E+00
  0.9594E+00
  0.9177E+00
  0.8747E+00
  0.8323E+00
  0.7917E+00
  0.7539E+00
  0.7193E+00
  0.6885E+00
  0.6626E+00
  0.6433E+00
  0.6325E+00
  0.6329E+00
  0.6394E+00
  0.6493E+00
  0.6586E+00
  0.6649E+00
  0.6660E+00
  0.6635E+00
  0.6578E+00
  0.6478E+00
  0.6216E+00
  0.5714E+00
  0.5129E+00
  0.4685E+00
  0.4559E+00
  0.4578E+00
  0.4665E+00
  0.4775E+00
  0.4838E+00
  0.4860E+00
  0.4878E+00
  0.4903E+00
  0.4895E+00
  0.4721E+00
  0.4183E+00
  0.3534E+00
  0.2963E+00
  0.2532E+00
  0.2242E+00
  0.2082E+00
  0.2019E+00
  0.2003E+00
  0.2000E+00
  0.2000E+00
  0.2000E+00
  0.2000E+00
  0.2000E+00
  0.1072E+01
  0.1072E+01
  0.1072E+01
  0.1072E+01
  0.1072E+01
  0.1072E+01
  0.1071E+01
  0.1071E+01
  0.1069E+01
  0.1065E+01
  0.1054E+01
  0.1035E+01
  0.1006E+01
  0.9680E+00
  0.9259E+00
  0.8824E+00
  0.8404E+00
  0.8013E+00
  0.7658E+00
  0.7344E+00
  0.7080E+00
  0.6881E+00
  0.6757E+00
  0.6718E+00
  0.6751E+00
  0.6803E+00
  0.6820E+00
  0.6798E+00
  0.6745E+00
  0.6680E+00
  0.6592E+00
  0.6426E+00
  0.6108E+00
  0.5639E+00
  0.5114E+00
  0.4698E+00
  0.4556E+00
  0.4565E+00
  0.4639E+00
  0.4754E+00
  0.4831E+00
  0.4865E+00
  0.4888E+00
  0.4912E+00
  0.4901E+00
  0.4723E+00
  0.4183E+00
  0.3533E+00
  0.2963E+00
  0.2532E+00
  0.2243E+00
  0.2084E+00
  0.2020E+00
  0.2003E+00
  0.2000E+00
  0.2000E+00
  0.2000E+00
  0.2000E+00
  0.2000E+00
  0.2000E+00
  0.1073E+01
  0.1073E+01
  0.1073E+01
  0.1073E+01
  0.1073E+01
  0.1073E+01
  0.1073E+01
  0.1073E+01
  0.1071E+01
  0.1066E+01
  0.1056E+01
  0.1036E+01
  0.1007E+01
  0.9697E+00
  0.9286E+00
  0.8874E+00
  0.8482E+00
  0.8124E+00
  0.7809E+00
  0.7546E+00
  0.7342E+00
  0.7197E+00
  0.7107E+00
  0.7058E+00
  0.7011E+00
  0.6943E+00
  0.6864E+00
  0.6787E+00
  0.6686E+00
  0.6524E+00
  0.6264E+00
  0.5908E+00
  0.5487E+00
  0.5044E+00
  0.4693E+00
  0.4569E+00
  0.4570E+00
  0.4632E+00
  0.4746E+00
  0.4827E+00
  0.4872E+00
  0.4903E+00
  0.4927E+00
  0.4910E+00
  0.4719E+00
  0.4179E+00
  0.3531E+00
  0.2961E+00
  0.2531E+00
  0.2242E+00
  0.2084E+00
  0.2020E+00
  0.2003E+00
  0.2000E+00
  0.2000E+00
  0.2000E+00
  0.2000E+00
  0.2000E+00
  0.2000E+00
  0.2000E+00
  0.1071E+01
  0.1071E+01
  0.1071E+01
  0.1071E+01
  0.1071E+01
  0.1071E+01
  0.1071E+01
  0.1070E+01
  0.1069E+01
  0.1064E+01
  0.1053E+01
  0.1034E+01
  0.1004E+01
  0.9677E+00
  0.9276E+00
  0.8879E+00
  0.8519E+00
  0.8199E+00
  0.7924E+00
  0.7694E+00
  0.7506E+00
  0.7347E+00
  0.7212E+00
  0.7103E+00
  0.7004E+00
  0.6891E+00
  0.6753E+00
  0.6565E+00
  0.6320E+00
  0.6014E+00
  0.5664E+00
  0.5289E+00
  0.4930E+00
  0.4671E+00
  0.4595E+00
  0.4593E+00
  0.4653E+00
  0.4758E+00
  0.4839E+00
  0.4887E+00
  0.4922E+00
  0.4946E+00
  0.4924E+00
  0.4719E+00
  0.4165E+00
  0.3518E+00
  0.2953E+00
  0.2524E+00
  0.2238E+00
  0.2082E+00
  0.2020E+00
  0.2003E+00
  0.2000E+00
  0.2000E+00
  0.2000E+00
  0.2000E+00
  0.2000E+00
  0.2000E+00
  0.2000E+00
  0.2000E+00
  0.1053E+01
  0.1053E+01
  0.1053E+01
  0.1053E+01
  0.1053E+01
  0.1053E+01
  0.1053E+01
  0.1052E+01
  0.1049E+01
  0.1044E+01
  0.1032E+01
  0.1013E+01
  0.9847E+00
  0.9510E+00
  0.9153E+00
  0.8799E+00
  0.8466E+00
  0.8165E+00
  0.7899E+00
  0.7668E+00
  0.7468E+00
  0.7286E+00
  0.7121E+00
  0.6951E+00
  0.6760E+00
  0.6545E+00
  0.6298E+00
  0.6026E+00
  0.5725E+00
  0.5406E+00
  0.5089E+00
  0.4816E+00
  0.4661E+00
  0.4624E+00
  0.4628E+00
  0.4692E+00
  0.4790E+00
  0.4871E+00
  0.4921E+00
  0.4954E+00
  0.4972E+00
  0.4938E+00
  0.4715E+00
  0.4154E+00
  0.3500E+00
  0.2935E+00
  0.2512E+00
  0.2231E+00
  0.2079E+00
  0.2019E+00
  0.2003E+00
  0.2000E+00
  0.2000E+00
  0.2000E+00
  0.2000E+00
  0.2000E+00
  0.2000E+00
  0.2000E+00
  0.2000E+00
  0.2000E+00
  0.9865E+00
  0.9865E+00
  0.9865E+00
  0.9865E+00