# vtk DataFile Version 3.0
vtk output
ASCII
DATASET RECTILINEAR_GRID
DIMENSIONS          61          61 1
X_COORDINATES    61 double
  0.0000E+00
  0.1667E+00
  0.3333E+00
  0.5000E+00
  0.6667E+00
  0.8333E+00
  0.1000E+01
  0.1167E+01
  0.1333E+01
  0.1500E+01
  0.1667E+01
  0.1833E+01
  0.2000E+01
  0.2167E+01
  0.2333E+01
  0.2500E+01
  0.2667E+01
  0.2833E+01
  0.3000E+01
  0.3167E+01
  0.3333E+01
  0.3500E+01
  0.3667E+01
  0.3833E+01
  0.4000E+01
  0.4167E+01
  0.4333E+01
  0.4500E+01
  0.4667E+01
  0.4833E+01
  0.5000E+01
  0.5167E+01
  0.5333E+01
  0.5500E+01
  0.5667E+01
  0.5833E+01
  0.6000E+01
  0.6167E+01
  0.6333E+01
  0.6500E+01
  0.6667E+01
  0.6833E+01
  0.7000E+01
  0.7167E+01
  0.7333E+01
  0.7500E+01
  0.7667E+01
  0.7833E+01
  0.8000E+01
  0.8167E+01
  0.8333E+01
  0.8500E+01
  0.8667E+01
  0.8833E+01
  0.9000E+01
  0.9167E+01
  0.9333E+01
  0.9500E+01
  0.9667E+01
  0.9833E+01
  0.1000E+02
Y_COORDINATES    61 double
  0.0000E+00
  0.1667E+00
  0.3333E+00
  0.5000E+00
  0.6667E+00
  0.8333E+00
  0.1000E+01
  0.1167E+01
  0.1333E+01
  0.1500E+01
  0.1667E+01
  0.1833E+01
  0.2000E+01
  0.2167E+01
  0.2333E+01
  0.2500E+01
  0.2667E+01
  0.2833E+01
  0.3000E+01
  0.3167E+01
  0.3333E+01
  0.3500E+01
  0.3667E+01
  0.3833E+01
  0.4000E+01
  0.4167E+01
  0.4333E+01
  0.4500E+01
  0.4667E+01
  0.4833E+01
  0.5000E+01
  0.5167E+01
  0.5333E+01
  0.5500E+01
  0.5667E+01
  0.5833E+01
  0.6000E+01
  0.6167E+01
  0.6333E+01
  0.6500E+01
  0.6667E+01
  0.6833E+01
  0.7000E+01
  0.7167E+01
  0.7333E+01
  0.7500E+01
  0.7667E+01
  0.7833E+01
  0.8000E+01
  0.8167E+01
  0.8333E+01
  0.8500E+01
  0.8667E+01
  0.8833E+01
  0.9000E+01
  0.9167E+01
  0.9333E+01
  0.9500E+01
  0.9667E+01
  0.9833E+01
  0.1000E+02
Z_COORDINATES 1 double
0
CELL_DATA                 3600
FIELD FieldData 4
density 1                 3600 double
  0.3027E+01
  0.3027E+01
  0.3027E+01
  0.3027E+01
  0.3027E+01
  0.3027E+01
  0.3027E+01
  0.3027E+01
  0.3027E+01
  0.3027E+01
  0.3027E+01
  0.3027E+01
  0.3025E+01
  0.3019E+01
  0.2999E+01
  0.2952E+01
  0.2869E+01
  0.2753E+01
  0.2619E+01
  0.2481E+01
  0.2344E+01
  0.2212E+01
  0.2086E+01
  0.1967E+01
  0.1857E+01
  0.1753E+01
  0.1656E+01
  0.1566E+01
  0.1480E+01
  0.1400E+01
  0.1325E+01
  0.1255E+01
  0.1189E+01
  0.1128E+01
  0.1071E+01
  0.1020E+01
  0.9764E+00
  0.9455E+00
  0.9432E+00
  0.9568E+00
  0.9758E+00
  0.9901E+00
  0.9911E+00
  0.9757E+00
  0.9102E+00
  0.8123E+00
  0.7158E+00
  0.6463E+00
  0.6189E+00
  0.6181E+00
  0.6271E+00
  0.6349E+00
  0.5884E+00
  0.4057E+00
  0.2620E+00
  0.2068E+00
  0.2001E+00
  0.2000E+00
  0.2000E+00
  0.2000E+00
  0.2989E+01
  0.2989E+01
  0.2989E+01
  0.2989E+01
  0.2989E+01
  0.2989E+01
  0.2989E+01
  0.2989E+01
  0.2989E+01
  0.2989E+01
  0.2989E+01
  0.2988E+01
  0.2987E+01
  0.2980E+01
  0.2961E+01
  0.2915E+01
  0.2833E+01
  0.2718E+01
  0.2586E+01
  0.2448E+01
  0.2312E+01
  0.2180E+01
  0.2054E+01
  0.1936E+01
  0.1825E+01
  0.1722E+01
  0.1625E+01
  0.1534E+01
  0.1448E+01
  0.1368E+01
  0.1293E+01
  0.1223E+01
  0.1157E+01
  0.1096E+01
  0.1040E+01
  0.9885E+00
  0.9454E+00
  0.9151E+00
  0.9126E+00
  0.9248E+00
  0.9432E+00
  0.9572E+00
  0.9585E+00
  0.9450E+00
  0.8844E+00
  0.7931E+00
  0.7032E+00
  0.6381E+00
  0.6138E+00
  0.6137E+00
  0.6242E+00
  0.6306E+00
  0.5813E+00
  0.3990E+00
  0.2594E+00
  0.2063E+00
  0.2001E+00
  0.2000E+00
  0.2000E+00
  0.2000E+00
  0.2910E+01
  0.2910E+01
  0.2910E+01
  0.2910E+01
  0.2910E+01
  0.2910E+01
  0.2910E+01
  0.2910E+01
  0.2910E+01
  0.2910E+01
  0.2910E+01
  0.2909E+01
  0.2908E+01
  0.2902E+01
  0.2883E+01
  0.2839E+01
  0.2760E+01
  0.2648E+01
  0.2518E+01
  0.2382E+01
  0.2247E+01
  0.2116E+01
  0.1992E+01
  0.1874E+01
  0.1764E+01
  0.1661E+01
  0.1565E+01
  0.1474E+01
  0.1390E+01
  0.1310E+01
  0.1235E+01
  0.1166E+01
  0.1101E+01
  0.1041E+01
  0.9855E+00
  0.9357E+00
  0.8935E+00
  0.8644E+00
  0.8616E+00
  0.8712E+00
  0.8883E+00
  0.9025E+00
  0.9044E+00
  0.8940E+00
  0.8421E+00
  0.7617E+00
  0.6822E+00
  0.6239E+00
  0.6039E+00
  0.6049E+00
  0.6175E+00
  0.6227E+00
  0.5689E+00
  0.3876E+00
  0.2546E+00
  0.2054E+00
  0.2001E+00
  0.2000E+00
  0.2000E+00
  0.2000E+00
  0.2794E+01
  0.2794E+01
  0.2794E+01
  0.2794E+01
  0.2794E+01
  0.2794E+01
  0.2794E+01
  0.2794E+01
  0.2794E+01
  0.2794E+01
  0.2794E+01
  0.2794E+01
  0.2792E+01
  0.2787E+01
  0.2770E+01
  0.2728E+01
  0.2653E+01
  0.2545E+01
  0.2419E+01
  0.2286E+01
  0.2154E+01
  0.2026E+01
  0.1904E+01
  0.1789E+01
  0.1681E+01
  0.1580E+01
  0.1485E+01
  0.1397E+01
  0.1314E+01
  0.1236E+01
  0.1164E+01
  0.1096E+01
  0.1033E+01
  0.9751E+00
  0.9218E+00
  0.8739E+00
  0.8336E+00
  0.8057E+00
  0.8026E+00
  0.8098E+00
  0.8251E+00
  0.8399E+00
  0.8436E+00
  0.8367E+00
  0.7957E+00
  0.7268E+00
  0.6575E+00
  0.6059E+00
  0.5905E+00
  0.5928E+00
  0.6082E+00
  0.6120E+00
  0.5509E+00
  0.3710E+00
  0.2476E+00
  0.2042E+00
  0.2000E+00
  0.2000E+00
  0.2000E+00
  0.2000E+00
  0.2652E+01
  0.2652E+01
  0.2652E+01
  0.2652E+01
  0.2652E+01
  0.2652E+01
  0.2652E+01
  0.2652E+01
  0.2652E+01
  0.2652E+01
  0.2652E+01
  0.2652E+01
  0.2651E+01
  0.2646E+01
  0.2630E+01
  0.2592E+01
  0.2522E+01
  0.2420E+01
  0.2299E+01
  0.2171E+01
  0.2044E+01
  0.1920E+01
  0.1802E+01
  0.1690E+01
  0.1586E+01
  0.1488E+01
  0.1397E+01
  0.1311E+01
  0.1231E+01
  0.1157E+01
  0.1087E+01
  0.1022E+01
  0.9624E+00
  0.9068E+00
  0.8561E+00
  0.8106E+00
  0.7724E+00
  0.7457E+00
  0.7423E+00
  0.7477E+00
  0.7617E+00
  0.7769E+00
  0.7846E+00
  0.7814E+00
  0.7524E+00
  0.6934E+00
  0.6322E+00
  0.5863E+00
  0.5752E+00
  0.5800E+00
  0.5980E+00
  0.6002E+00
  0.5264E+00
  0.3503E+00
  0.2392E+00
  0.2030E+00
  0.2000E+00
  0.2000E+00
  0.2000E+00
  0.2000E+00
  0.2499E+01
  0.2499E+01
  0.2499E+01
  0.2499E+01
  0.2499E+01
  0.2499E+01
  0.2499E+01
  0.2499E+01
  0.2499E+01
  0.2499E+01
  0.2499E+01
  0.2499E+01
  0.2498E+01
  0.2494E+01
  0.2480E+01
  0.2446E+01
  0.2382E+01
  0.2286E+01
  0.2171E+01
  0.2049E+01
  0.1927E+01
  0.1808E+01
  0.1695E+01
  0.1588E+01
  0.1488E+01
  0.1394E+01
  0.1307E+01
  0.1225E+01
  0.1149E+01
  0.1078E+01
  0.1012E+01
  0.9503E+00
  0.8933E+00
  0.8406E+00
  0.7925E+00
  0.7494E+00
  0.7133E+00
  0.6875E+00
  0.6838E+00
  0.6881E+00
  0.7014E+00
  0.7183E+00
  0.7323E+00
  0.7330E+00
  0.7147E+00
  0.6634E+00
  0.6068E+00
  0.5665E+00
  0.5602E+00
  0.5681E+00
  0.5883E+00
  0.5871E+00
  0.4954E+00
  0.3267E+00
  0.2302E+00
  0.2019E+00
  0.2000E+00
  0.2000E+00
  0.2000E+00
  0.2000E+00
  0.2347E+01
  0.2347E+01
  0.2347E+01
  0.2347E+01
  0.2347E+01
  0.2347E+01
  0.2347E+01
  0.2347E+01
  0.2347E+01
  0.2347E+01
  0.2347E+01
  0.2347E+01
  0.2346E+01
  0.2342E+01
  0.2331E+01
  0.2300E+01
  0.2242E+01
  0.2153E+01
  0.2045E+01
  0.1929E+01
  0.1812E+01
  0.1699E+01
  0.1591E+01
  0.1489E+01
  0.1393E+01
  0.1304E+01
  0.1221E+01
  0.1143E+01
  0.1071E+01
  0.1003E+01
  0.9405E+00
  0.8822E+00
  0.8282E+00
  0.7783E+00
  0.7327E+00
  0.6919E+00
  0.6577E+00
  0.6327E+00
  0.6288E+00
  0.6329E+00
  0.6464E+00
  0.6670E+00
  0.6900E+00
  0.6958E+00
  0.6833E+00
  0.6356E+00
  0.5813E+00
  0.5477E+00
  0.5455E+00
  0.5584E+00
  0.5797E+00
  0.5709E+00
  0.4576E+00
  0.3022E+00
  0.2214E+00
  0.2010E+00
  0.2000E+00
  0.2000E+00
  0.2000E+00
  0.2000E+00
  0.2201E+01
  0.2201E+01
  0.2201E+01
  0.2201E+01
  0.2201E+01
  0.2201E+01
  0.2201E+01
  0.2201E+01
  0.2201E+01
  0.2201E+01
  0.2201E+01
  0.2201E+01
  0.2200E+01
  0.2197E+01
  0.2187E+01
  0.2160E+01
  0.2107E+01
  0.2025E+01
  0.1924E+01
  0.1814E+01
  0.1703E+01
  0.1596E+01
  0.1493E+01
  0.1395E+01
  0.1304E+01
  0.1219E+01
  0.1140E+01
  0.1067E+01
  0.9977E+00
  0.9336E+00
  0.8741E+00
  0.8188E+00
  0.7677E+00
  0.7204E+00
  0.6772E+00
  0.6384E+00
  0.6060E+00
  0.5818E+00
  0.5785E+00
  0.5830E+00
  0.5986E+00
  0.6266E+00
  0.6612E+00
  0.6710E+00
  0.6569E+00
  0.6076E+00
  0.5551E+00
  0.5313E+00
  0.5332E+00
  0.5526E+00
  0.5704E+00
  0.5487E+00
  0.4147E+00
  0.2782E+00
  0.2136E+00
  0.2005E+00
  0.2000E+00
  0.2000E+00
  0.2000E+00
  0.2000E+00
  0.2063E+01
  0.2063E+01
  0.2063E+01
  0.2063E+01
  0.2063E+01
  0.2063E+01
  0.2063E+01
  0.2063E+01
  0.2063E+01
  0.2063E+01
  0.2063E+01
  0.2063E+01
  0.2062E+01
  0.2060E+01
  0.2051E+01
  0.2028E+01
  0.1980E+01
  0.1905E+01
  0.1810E+01
  0.1706E+01
  0.1601E+01
  0.1499E+01
  0.1400E+01
  0.1308E+01
  0.1221E+01
  0.1140E+01
  0.1065E+01
  0.9950E+00
  0.9296E+00
  0.8688E+00
  0.8124E+00
  0.7600E+00
  0.7116E+00
  0.6667E+00
  0.6258E+00
  0.5890E+00
  0.5579E+00
  0.5352E+00
  0.5330E+00
  0.5396E+00
  0.5611E+00
  0.6015E+00
  0.6485E+00
  0.6558E+00
  0.6338E+00
  0.5786E+00
  0.5301E+00
  0.5182E+00
  0.5243E+00
  0.5483E+00
  0.5610E+00
  0.5162E+00
  0.3694E+00
  0.2558E+00
  0.2077E+00
  0.2002E+00
  0.2000E+00
  0.2000E+00
  0.2000E+00
  0.2000E+00
  0.1933E+01
  0.1933E+01
  0.1933E+01
  0.1933E+01
  0.1933E+01
  0.1933E+01
  0.1933E+01
  0.1933E+01
  0.1933E+01
  0.1933E+01
  0.1933E+01
  0.1933E+01
  0.1932E+01
  0.1930E+01
  0.1923E+01
  0.1903E+01
  0.1861E+01
  0.1792E+01
  0.1703E+01
  0.1605E+01
  0.1505E+01
  0.1408E+01
  0.1314E+01
  0.1226E+01
  0.1143E+01
  0.1067E+01
  0.9950E+00
  0.9283E+00
  0.8663E+00
  0.8086E+00
  0.7551E+00
  0.7055E+00
  0.6596E+00
  0.6171E+00
  0.5783E+00
  0.5433E+00
  0.5129E+00
  0.4936E+00
  0.4937E+00
  0.5048E+00
  0.5402E+00
  0.6023E+00
  0.6484E+00
  0.6461E+00
  0.6054E+00
  0.5476E+00
  0.5097E+00
  0.5068E+00
  0.5201E+00
  0.5456E+00
  0.5463E+00
  0.4702E+00
  0.3271E+00
  0.2363E+00
  0.2038E+00
  0.2001E+00
  0.2000E+00
  0.2000E+00
  0.2000E+00
  0.2000E+00
  0.1811E+01
  0.1811E+01
  0.1811E+01
  0.1811E+01
  0.1811E+01
  0.1811E+01
  0.1811E+01
  0.1811E+01
  0.1811E+01
  0.1811E+01
  0.1811E+01
  0.1811E+01
  0.1811E+01
  0.1809E+01
  0.1803E+01
  0.1786E+01
  0.1748E+01
  0.1686E+01
  0.1603E+01
  0.1510E+01
  0.1416E+01
  0.1323E+01
  0.1234E+01
  0.1150E+01
  0.1071E+01
  0.9977E+00
  0.9296E+00
  0.8663E+00
  0.8073E+00
  0.7526E+00
  0.7019E+00
  0.6549E+00
  0.6114E+00
  0.5712E+00
  0.5341E+00
  0.5011E+00
  0.4699E+00
  0.4592E+00
  0.4623E+00
  0.4880E+00
  0.5464E+00
  0.6192E+00
  0.6431E+00
  0.6275E+00
  0.5733E+00
  0.5183E+00
  0.4956E+00
  0.4986E+00
  0.5203E+00
  0.5405E+00
  0.5241E+00
  0.4139E+00
  0.2892E+00
  0.2209E+00
  0.2016E+00
  0.2000E+00
  0.2000E+00
  0.2000E+00
  0.2000E+00
  0.2000E+00
  0.1697E+01
  0.1697E+01
  0.1697E+01
  0.1697E+01
  0.1697E+01
  0.1697E+01
  0.1697E+01
  0.1697E+01
  0.1697E+01
  0.1697E+01
  0.1697E+01
  0.1697E+01
  0.1696E+01
  0.1695E+01
  0.1690E+01
  0.1676E+01
  0.1643E+01
  0.1586E+01
  0.1509E+01
  0.1422E+01
  0.1332E+01
  0.1243E+01
  0.1159E+01
  0.1078E+01
  0.1003E+01
  0.9336E+00
  0.8688E+00
  0.8086E+00
  0.7526E+00
  0.7007E+00
  0.6526E+00
  0.6080E+00
  0.5668E+00
  0.5286E+00
  0.4934E+00
  0.4609E+00
  0.4337E+00
  0.4314E+00
  0.4492E+00
  0.4975E+00
  0.5722E+00
  0.6323E+00
  0.6340E+00
  0.5981E+00
  0.5383E+00
  0.4936E+00
  0.4864E+00
  0.4964E+00
  0.5222E+00
  0.5308E+00
  0.4837E+00
  0.3568E+00
  0.2575E+00
  0.2104E+00
  0.2006E+00
  0.2000E+00
  0.2000E+00
  0.2000E+00
  0.2000E+00
  0.2000E+00
  0.1590E+01
  0.1590E+01
  0.1590E+01
  0.1590E+01
  0.1590E+01
  0.1590E+01
  0.1590E+01
  0.1590E+01
  0.1590E+01
  0.1590E+01
  0.1590E+01
  0.1590E+01
  0.1590E+01
  0.1589E+01
  0.1585E+01
  0.1572E+01
  0.1543E+01
  0.1492E+01
  0.1421E+01
  0.1339E+01
  0.1254E+01
  0.1169E+01
  0.1088E+01
  0.1012E+01
  0.9405E+00
  0.8740E+00
  0.8123E+00
  0.7551E+00
  0.7019E+00
  0.6525E+00
  0.6069E+00
  0.5646E+00
  0.5256E+00
  0.4890E+00
  0.4554E+00
  0.4219E+00
  0.4103E+00
  0.4211E+00
  0.4597E+00
  0.5272E+00
  0.6071E+00
  0.6306E+00
  0.6142E+00
  0.5594E+00
  0.5031E+00
  0.4783E+00
  0.4809E+00
  0.5006E+00
  0.5211E+00
  0.5108E+00
  0.4235E+00
  0.3073E+00
  0.2330E+00
  0.2043E+00
  0.2002E+00
  0.2000E+00
  0.2000E+00
  0.2000E+00
  0.2000E+00
  0.2000E+00
  0.1490E+01
  0.1490E+01
  0.1490E+01
  0.1490E+01
  0.1490E+01
  0.1490E+01
  0.1490E+01
  0.1490E+01
  0.1490E+01
  0.1490E+01
  0.1490E+01
  0.1490E+01
  0.1490E+01
  0.1489E+01
  0.1486E+01
  0.1476E+01
  0.1451E+01
  0.1405E+01
  0.1339E+01
  0.1262E+01
  0.1181E+01
  0.1101E+01
  0.1023E+01
  0.9504E+00
  0.8822E+00
  0.8188E+00
  0.7600E+00
  0.7055E+00
  0.6549E+00
  0.6080E+00
  0.5646E+00
  0.5246E+00
  0.4870E+00
  0.4526E+00
  0.4174E+00
  0.3964E+00
  0.4027E+00
  0.4324E+00
  0.4894E+00
  0.5692E+00
  0.6192E+00
  0.6162E+00
  0.5749E+00
  0.5151E+00
  0.4757E+00
  0.4716E+00
  0.4824E+00
  0.5061E+00
  0.5116E+00
  0.4689E+00
  0.3595E+00
  0.2672E+00
  0.2161E+00
  0.2015E+00
  0.2000E+00
  0.2000E+00
  0.2000E+00
  0.2000E+00
  0.2000E+00
  0.2000E+00
  0.1397E+01
  0.1397E+01
  0.1397E+01
  0.1397E+01
  0.1397E+01
  0.1397E+01
  0.1397E+01
  0.1397E+01
  0.1397E+01
  0.1397E+01
  0.1397E+01
  0.1397E+01
  0.1397E+01
  0.1396E+01
  0.1394E+01
  0.1385E+01
  0.1364E+01
  0.1323E+01
  0.1263E+01
  0.1190E+01
  0.1113E+01
  0.1037E+01
  0.9631E+00
  0.8934E+00
  0.8281E+00
  0.7676E+00
  0.7115E+00
  0.6595E+00
  0.6113E+00
  0.5667E+00
  0.5256E+00
  0.4870E+00
  0.4517E+00
  0.4158E+00
  0.3900E+00
  0.3922E+00
  0.4139E+00
  0.4636E+00
  0.5377E+00
  0.6043E+00
  0.6114E+00
  0.5833E+00
  0.5238E+00
  0.4773E+00
  0.4654E+00
  0.4714E+00
  0.4920E+00
  0.5050E+00
  0.4877E+00
  0.4041E+00
  0.3054E+00
  0.2371E+00
  0.2065E+00
  0.2004E+00
  0.2000E+00
  0.2000E+00
  0.2000E+00
  0.2000E+00
  0.2000E+00
  0.2000E+00
  0.1311E+01
  0.1311E+01
  0.1311E+01
  0.1311E+01
  0.1311E+01
  0.1311E+01
  0.1311E+01
  0.1311E+01
  0.1311E+01
  0.1311E+01
  0.1311E+01
  0.1311E+01
  0.1311E+01
  0.1310E+01
  0.1308E+01
  0.1301E+01
  0.1283E+01
  0.1247E+01
  0.1191E+01
  0.1123E+01
  0.1051E+01
  0.9778E+00
  0.9074E+00
  0.8406E+00
  0.7782E+00
  0.7203E+00
  0.6667E+00
  0.6171E+00
  0.5712E+00
  0.5286E+00
  0.4890E+00
  0.4526E+00
  0.4158E+00
  0.3882E+00
  0.3880E+00
  0.4042E+00
  0.4430E+00
  0.5077E+00
  0.5882E+00
  0.6079E+00
  0.5880E+00
  0.5313E+00
  0.4805E+00
  0.4628E+00
  0.4655E+00
  0.4810E+00
  0.4960E+00
  0.4911E+00
  0.4345E+00
  0.3401E+00
  0.2628E+00
  0.2172E+00
  0.2021E+00
  0.2001E+00
  0.2000E+00
  0.2000E+00
  0.2000E+00
  0.2000E+00
  0.2000E+00
  0.2000E+00
  0.1232E+01
  0.1232E+01
  0.1232E+01
  0.1232E+01
  0.1232E+01
  0.1232E+01
  0.1232E+01
  0.1232E+01
  0.1232E+01
  0.1232E+01
  0.1232E+01
  0.1232E+01
  0.1232E+01
  0.1231E+01
  0.1230E+01
  0.1224E+01
  0.1208E+01
  0.1176E+01
  0.1126E+01
  0.1062E+01
  0.9932E+00
  0.9238E+00
  0.8564E+00
  0.7925E+00
  0.7326E+00
  0.6771E+00
  0.6258E+00
  0.5782E+00
  0.5341E+00
  0.4934E+00
  0.4554E+00
  0.4175E+00
  0.3901E+00
  0.3882E+00
  0.3986E+00
  0.4319E+00
  0.4881E+00
  0.5626E+00
  0.6005E+00
  0.5912E+00
  0.5411E+00
  0.4869E+00
  0.4632E+00
  0.4635E+00
  0.4746E+00
  0.4895E+00
  0.4895E+00
  0.4510E+00
  0.3671E+00
  0.2877E+00
  0.2323E+00
  0.2064E+00
  0.2005E+00
  0.2000E+00
  0.2000E+00
  0.2000E+00
  0.2000E+00
  0.2000E+00
  0.2000E+00
  0.2000E+00
  0.1160E+01
  0.1160E+01
  0.1160E+01
  0.1160E+01
  0.1160E+01
  0.1160E+01
  0.1160E+01
  0.1160E+01
  0.1160E+01
  0.1160E+01
  0.1160E+01
  0.1160E+01
  0.1160E+01
  0.1160E+01
  0.1159E+01
  0.1154E+01
  0.1141E+01
  0.1113E+01
  0.1067E+01
  0.1007E+01
  0.9418E+00
  0.8755E+00
  0.8109E+00
  0.7494E+00
  0.6918E+00
  0.6384E+00
  0.5889E+00
  0.5432E+00
  0.5010E+00
  0.4609E+00
  0.4214E+00
  0.3961E+00
  0.3923E+00
  0.4043E+00
  0.4319E+00
  0.4764E+00
  0.5501E+00
  0.5977E+00
  0.5933E+00
  0.5495E+00
  0.4939E+00
  0.4659E+00
  0.4641E+00
  0.4720E+00
  0.4860E+00
  0.4873E+00
  0.4596E+00
  0.3857E+00
  0.3083E+00
  0.2484E+00
  0.2135E+00
  0.2019E+00
  0.2001E+00
  0.2000E+00
  0.2000E+00
  0.2000E+00
  0.2000E+00
  0.2000E+00
  0.2000E+00
  0.2000E+00
  0.1099E+01
  0.1099E+01
  0.1099E+01
  0.1099E+01
  0.1099E+01
  0.1099E+01
  0.1099E+01
  0.1099E+01
  0.1099E+01
  0.1099E+01
  0.1099E+01
  0.1099E+01
  0.1099E+01
  0.1099E+01
  0.1098E+01
  0.1094E+01
  0.1083E+01
  0.1059E+01
  0.1017E+01
  0.9610E+00
  0.8984E+00
  0.8347E+00
  0.7726E+00
  0.7133E+00
  0.6576E+00
  0.6059E+00
  0.5579E+00
  0.5129E+00
  0.4699E+00
  0.4338E+00
  0.4114E+00
  0.4024E+00
  0.4138E+00
  0.4432E+00
  0.4884E+00
  0.5497E+00
  0.5970E+00
  0.5967E+00
  0.5599E+00
  0.5016E+00
  0.4691E+00
  0.4654E+00
  0.4714E+00
  0.4841E+00
  0.4866E+00
  0.4652E+00
  0.3981E+00
  0.3234E+00
  0.2624E+00
  0.2222E+00
  0.2044E+00
  0.2004E+00
  0.2000E+00
  0.2000E+00
  0.2000E+00
  0.2000E+00
  0.2000E+00
  0.2000E+00
  0.2000E+00
  0.2000E+00
  0.1051E+01
  0.1051E+01
  0.1051E+01
  0.1051E+01
  0.1051E+01
  0.1051E+01
  0.1051E+01
  0.1051E+01
  0.1051E+01
  0.1051E+01
  0.1051E+01
  0.1051E+01
  0.1050E+01
  0.1050E+01
  0.1050E+01
  0.1047E+01
  0.1037E+01
  0.1016E+01
  0.9790E+00
  0.9274E+00
  0.8681E+00
  0.8066E+00
  0.7458E+00
  0.6874E+00
  0.6327E+00
  0.5818E+00
  0.5352E+00
  0.4936E+00
  0.4593E+00
  0.4315E+00
  0.4202E+00
  0.4321E+00
  0.4637E+00
  0.5078E+00
  0.5632E+00
  0.5976E+00
  0.5966E+00
  0.5663E+00
  0.5101E+00
  0.4740E+00
  0.4676E+00
  0.4714E+00
  0.4830E+00
  0.4860E+00
  0.4682E+00
  0.4065E+00
  0.3342E+00
  0.2733E+00
  0.2305E+00
  0.2080E+00
  0.2011E+00
  0.2001E+00
  0.2000E+00
  0.2000E+00
  0.2000E+00
  0.2000E+00
  0.2000E+00
  0.2000E+00
  0.2000E+00
  0.2000E+00
  0.1040E+01
  0.1040E+01
  0.1040E+01
  0.1040E+01
  0.1040E+01
  0.1040E+01
  0.1040E+01
  0.1040E+01
  0.1040E+01
  0.1040E+01
  0.1040E+01
  0.1040E+01
  0.1040E+01
  0.1040E+01
  0.1039E+01
  0.1037E+01
  0.1029E+01
  0.1010E+01
  0.9740E+00
  0.9236E+00
  0.8648E+00
  0.8034E+00
  0.7424E+00
  0.6838E+00
  0.6288E+00
  0.5784E+00
  0.5330E+00
  0.4937E+00
  0.4623E+00
  0.4489E+00
  0.4594E+00
  0.4894E+00
  0.5375E+00
  0.5875E+00
  0.6023E+00
  0.5937E+00
  0.5597E+00
  0.5102E+00
  0.4775E+00
  0.4710E+00
  0.4735E+00
  0.4825E+00
  0.4852E+00
  0.4684E+00
  0.4100E+00
  0.3413E+00
  0.2814E+00
  0.2374E+00
  0.2118E+00
  0.2021E+00
  0.2002E+00
  0.2000E+00
  0.2000E+00
  0.2000E+00
  0.2000E+00
  0.2000E+00
  0.2000E+00
  0.2000E+00
  0.2000E+00
  0.2000E+00
  0.1044E+01
  0.1044E+01
  0.1044E+01
  0.1044E+01
  0.1044E+01
  0.1044E+01
  0.1044E+01
  0.1044E+01
  0.1044E+01
  0.1044E+01
  0.1044E+01
  0.1044E+01
  0.1044E+01
  0.1044E+01
  0.1043E+01
  0.1041E+01
  0.1034E+01
  0.1017E+01
  0.9834E+00
  0.9338E+00
  0.8738E+00
  0.8104E+00
  0.7478E+00
  0.6881E+00
  0.6329E+00
  0.5830E+00
  0.5396E+00
  0.5048E+00
  0.4882E+00
  0.4972E+00
  0.5274E+00
  0.5693E+00
  0.6041E+00
  0.6061E+00
  0.5921E+00
  0.5490E+00
  0.5016E+00
  0.4738E+00
  0.4708E+00
  0.4752E+00
  0.4839E+00
  0.4852E+00
  0.4682E+00
  0.4108E+00
  0.3444E+00
  0.2867E+00
  0.2427E+00
  0.2152E+00
  0.2034E+00
  0.2004E+00
  0.2000E+00
  0.2000E+00
  0.2000E+00
  0.2000E+00
  0.2000E+00
  0.2000E+00
  0.2000E+00
  0.2000E+00
  0.2000E+00
  0.2000E+00
  0.1056E+01
  0.1056E+01
  0.1056E+01
  0.1056E+01
  0.1056E+01
  0.1056E+01
  0.1056E+01
  0.1056E+01
  0.1056E+01
  0.1056E+01
  0.1056E+01
  0.1056E+01
  0.1056E+01
  0.1056E+01
  0.1055E+01
  0.1053E+01
  0.1047E+01
  0.1032E+01
  0.9998E+00
  0.9510E+00
  0.8904E+00
  0.8256E+00
  0.7618E+00
  0.7015E+00
  0.6465E+00
  0.5987E+00
  0.5612E+00
  0.5401E+00
  0.5466E+00
  0.5725E+00
  0.6073E+00
  0.6206E+00
  0.6114E+00
  0.5880E+00
  0.5402E+00
  0.4943E+00
  0.4688E+00
  0.4674E+00
  0.4730E+00
  0.4839E+00
  0.4858E+00
  0.4688E+00
  0.4114E+00
  0.3458E+00
  0.2895E+00
  0.2464E+00
  0.2181E+00
  0.2047E+00
  0.2007E+00
  0.2001E+00
  0.2000E+00
  0.2000E+00
  0.2000E+00
  0.2000E+00
  0.2000E+00
  0.2000E+00
  0.2000E+00
  0.2000E+00
  0.2000E+00
  0.2000E+00
  0.1066E+01
  0.1066E+01
  0.1066E+01
  0.1066E+01
  0.1066E+01
  0.1066E+01
  0.1066E+01
  0.1066E+01
  0.1066E+01
  0.1066E+01
  0.1066E+01
  0.1066E+01
  0.1066E+01
  0.1066E+01
  0.1065E+01
  0.1064E+01
  0.1058E+01
  0.1043E+01
  0.1013E+01
  0.9644E+00
  0.9044E+00
  0.8402E+00
  0.7770E+00
  0.7183E+00
  0.6670E+00
  0.6266E+00
  0.6014E+00
  0.6026E+00
  0.6196E+00
  0.6324E+00
  0.6290E+00
  0.6170E+00
  0.5823E+00
  0.5318E+00
  0.4866E+00
  0.4659E+00
  0.4656E+00
  0.4712E+00
  0.4825E+00
  0.4853E+00
  0.4686E+00
  0.4116E+00
  0.3461E+00
  0.2906E+00
  0.2486E+00
  0.2203E+00
  0.2058E+00
  0.2010E+00
  0.2001E+00
  0.2000E+00
  0.2000E+00
  0.2000E+00
  0.2000E+00
  0.2000E+00
  0.2000E+00
  0.2000E+00
  0.2000E+00
  0.2000E+00
  0.2000E+00
  0.2000E+00
  0.1066E+01
  0.1066E+01
  0.1066E+01
  0.1066E+01
  0.1066E+01
  0.1066E+01
  0.1066E+01
  0.1066E+01
  0.1066E+01
  0.1066E+01
  0.1066E+01
  0.1066E+01
  0.1066E+01
  0.1066E+01
  0.1065E+01
  0.1064E+01
  0.1058E+01
  0.1044E+01
  0.1013E+01
  0.9656E+00
  0.9063E+00
  0.8441E+00
  0.7846E+00
  0.7323E+00
  0.6899E+00
  0.6612E+00
  0.6484E+00
  0.6485E+00
  0.6427E+00
  0.6338E+00
  0.6136E+00
  0.5744E+00
  0.5241E+00
  0.4808E+00
  0.4633E+00
  0.4642E+00
  0.4714E+00
  0.4830E+00
  0.4854E+00
  0.4682E+00
  0.4113E+00
  0.3460E+00
  0.2905E+00
  0.2493E+00
  0.2216E+00
  0.2067E+00
  0.2013E+00
  0.2002E+00
  0.2000E+00
  0.2000E+00
  0.2000E+00
  0.2000E+00
  0.2000E+00
  0.2000E+00
  0.2000E+00
  0.2000E+00
  0.2000E+00
  0.2000E+00
  0.2000E+00
  0.2000E+00
  0.1050E+01
  0.1050E+01
  0.1050E+01
  0.1050E+01
  0.1050E+01
  0.1050E+01
  0.1050E+01
  0.1050E+01
  0.1050E+01
  0.1050E+01
  0.1050E+01
  0.1050E+01
  0.1050E+01
  0.1050E+01
  0.1050E+01
  0.1048E+01
  0.1042E+01
  0.1028E+01
  0.9982E+00
  0.9523E+00
  0.8960E+00
  0.8371E+00
  0.7814E+00
  0.7330E+00
  0.6958E+00
  0.6710E+00
  0.6560E+00
  0.6463E+00
  0.6275E+00
  0.5977E+00
  0.5591E+00
  0.5150E+00
  0.4772E+00
  0.4626E+00
  0.4636E+00
  0.4721E+00
  0.4841E+00
  0.4859E+00
  0.4685E+00
  0.4107E+00
  0.3458E+00
  0.2906E+00
  0.2492E+00
  0.2220E+00
  0.2072E+00
  0.2016E+00
  0.2002E+00
  0.2000E+00
  0.2000E+00
  0.2000E+00
  0.2000E+00
  0.2000E+00
  0.2000E+00
  0.2000E+00
  0.2000E+00
  0.2000E+00
  0.2000E+00
  0.2000E+00
  0.2000E+00
  0.2000E+00
  0.9853E+00
  0.9853E+00
  0.9853E+00
  0.9853E+00
  0.9853E+00
  0.9853E+00
  0.9853E+00
  0.9853E+00
  0.9853E+00
  0.9853E+00
  0.9853E+00
  0.9853E+00
  0.9852E+00
  0.9851E+00
  0.9846E+00
  0.9826E+00
  0.9766E+00
  0.9618E+00
  0.9338E+00
  0.8928E+00
  0.8445E+00
  0.7962E+00
  0.7524E+00
  0.7146E+00
  0.6832E+00
  0.6570E+00
  0.6339E+00
  0.6054E+00
  0.5733E+00
  0.5383E+00
  0.5030E+00
  0.4759E+00
  0.4656E+00
  0.4655E+00
  0.4743E+00
  0.4857E+00
  0.4862E+00
  0.4683E+00
  0.4099E+00
  0.3443E+00
  0.2895E+00
  0.2486E+00
  0.2216E+00
  0.2072E+00
  0.2017E+00
  0.2003E+00
  0.2000E+00
  0.2000E+00
  0.2000E+00
  0.2000E+00
  0.2000E+00
  0.2000E+00
  0.2000E+00
  0.2000E+00
  0.2000E+00
  0.2000E+00
  0.2000E+00
  0.2000E+00
  0.2000E+00
  0.2000E+00
  0.8865E+00
  0.8865E+00
  0.8865E+00
  0.8865E+00
  0.8865E+00
  0.8865E+00
  0.8865E+00
  0.8865E+00
  0.8865E+00
  0.8865E+00
  0.8865E+00
  0.8865E+00
  0.8864E+00
  0.8863E+00
  0.8856E+00
  0.8832E+00
  0.8766E+00
  0.8619E+00
  0.8367E+00
  0.8027E+00
  0.7648E+00
  0.7275E+00
  0.6934E+00
  0.6634E+00
  0.6356E+00
  0.6076E+00
  0.5787E+00
  0.5477E+00
  0.5182E+00
  0.4936E+00
  0.4781E+00
  0.4716E+00
  0.4716E+00
  0.4803E+00
  0.4895E+00
  0.4872E+00
  0.4651E+00
  0.4065E+00
  0.3413E+00
  0.2867E+00
  0.2464E+00
  0.2203E+00
  0.2067E+00
  0.2016E+00
  0.2003E+00
  0.2000E+00
  0.2000E+00
  0.2000E+00
  0.2000E+00
  0.2000E+00
  0.2000E+00
  0.2000E+00
  0.2000E+00
  0.2000E+00
  0.2000E+00
  0.2000E+00
  0.2000E+00
  0.2000E+00
  0.2000E+00
  0.2000E+00
  0.7869E+00
  0.7869E+00
  0.7869E+00
  0.7869E+00
  0.7869E+00
  0.7869E+00
  0.7869E+00
  0.7869E+00
  0.7869E+00
  0.7869E+00
  0.7869E+00
  0.7869E+00
  0.7869E+00
  0.7867E+00
  0.7858E+00
  0.7831E+00
  0.7761E+00
  0.7620E+00
  0.7404E+00
  0.7139E+00
  0.6860E+00
  0.6584E+00
  0.6323E+00
  0.6069E+00
  0.5813E+00
  0.5551E+00
  0.5301E+00
  0.5097E+00
  0.4956E+00
  0.4865E+00
  0.4806E+00
  0.4830E+00
  0.4916E+00
  0.4965E+00
  0.4895E+00
  0.4595E+00
  0.3981E+00
  0.3342E+00
  0.2814E+00
  0.2427E+00
  0.2181E+00
  0.2058E+00
  0.2013E+00
  0.2002E+00
  0.2000E+00
  0.2000E+00
  0.2000E+00
  0.2000E+00
  0.2000E+00
  0.2000E+00
  0.2000E+00
  0.2000E+00
  0.2000E+00
  0.2000E+00
  0.2000E+00
  0.2000E+00
  0.2000E+00
  0.2000E+00
  0.2000E+00
  0.2000E+00
  0.7131E+00
  0.7131E+00
  0.7131E+00
  0.7131E+00
  0.7131E+00
  0.7131E+00
  0.7131E+00
  0.7131E+00
  0.7131E+00
  0.7131E+00
  0.7131E+00
  0.7131E+00
  0.7130E+00
  0.7128E+00
  0.7118E+00
  0.7089E+00
  0.7018E+00
  0.6888E+00
  0.6705E+00
  0.6493E+00
  0.6281E+00
  0.6071E+00
  0.5866E+00
  0.5665E+00
  0.5477E+00
  0.5313E+00
  0.5182E+00
  0.5068E+00
  0.4986E+00
  0.4964E+00
  0.5002E+00
  0.5065E+00
  0.5045E+00
  0.4916E+00
  0.4509E+00
  0.3858E+00
  0.3233E+00
  0.2733E+00
  0.2373E+00
  0.2152E+00
  0.2046E+00
  0.2010E+00
  0.2002E+00
  0.2000E+00
  0.2000E+00
  0.2000E+00
  0.2000E+00
  0.2000E+00
  0.2000E+00
  0.2000E+00
  0.2000E+00
  0.2000E+00
  0.2000E+00
  0.2000E+00
  0.2000E+00
  0.2000E+00
  0.2000E+00
  0.2000E+00
  0.2000E+00
  0.2000E+00
  0.6792E+00
  0.6792E+00
  0.6792E+00
  0.6792E+00
  0.6792E+00
  0.6792E+00
  0.6792E+00
  0.6792E+00
  0.6792E+00
  0.6792E+00
  0.6792E+00
  0.6792E+00
  0.6791E+00
  0.6789E+00
  0.6778E+00
  0.6748E+00
  0.6679E+00
  0.6562E+00
  0.6411E+00
  0.6249E+00
  0.6083E+00
  0.5918E+00
  0.5756E+00
  0.5603E+00
  0.5455E+00
  0.5332E+00
  0.5244E+00
  0.5202E+00
  0.5205E+00
  0.5224E+00
  0.5211E+00
  0.5115E+00
  0.4877E+00
  0.4339E+00
  0.3673E+00
  0.3082E+00
  0.2624E+00
  0.2304E+00
  0.2118E+00
  0.2034E+00
  0.2007E+00
  0.2001E+00
  0.2000E+00
  0.2000E+00
  0.2000E+00
  0.2000E+00
  0.2000E+00
  0.2000E+00
  0.2000E+00
  0.2000E+00
  0.2000E+00
  0.2000E+00
  0.2000E+00
  0.2000E+00
  0.2000E+00
  0.2000E+00
  0.2000E+00
  0.2000E+00
  0.2000E+00
  0.2000E+00
  0.6751E+00
  0.6751E+00
  0.6751E+00
  0.6751E+00
  0.6751E+00
  0.6751E+00
  0.6751E+00
  0.6751E+00
  0.6751E+00
  0.6750E+00
  0.6750E+00
  0.6750E+00
  0.6750E+00
  0.6747E+00
  0.6736E+00
  0.6706E+00
  0.6641E+00
  0.6535E+00
  0.6397E+00
  0.6247E+00
  0.6093E+00
  0.5942E+00
  0.5804E+00
  0.5682E+00
  0.5585E+00
  0.5526E+00
  0.5483E+00
  0.5455E+00
  0.5408E+00
  0.5303E+00
  0.5111E+00
  0.4690E+00
  0.4038E+00
  0.3401E+00
  0.2877E+00
  0.2484E+00
  0.2222E+00
  0.2080E+00
  0.2021E+00
  0.2004E+00
  0.2001E+00
  0.2000E+00
  0.2000E+00
  0.2000E+00
  0.2000E+00
  0.2000E+00
  0.2000E+00
  0.2000E+00
  0.2000E+00
  0.2000E+00
  0.2000E+00
  0.2000E+00
  0.2000E+00
  0.2000E+00
  0.2000E+00
  0.2000E+00
  0.2000E+00
  0.2000E+00
  0.2000E+00
  0.2000E+00
  0.6772E+00
  0.6772E+00
  0.6772E+00
  0.6772E+00
  0.6772E+00
  0.6772E+00
  0.6772E+00
  0.6772E+00
  0.6772E+00
  0.6772E+00
  0.6772E+00
  0.6772E+00
  0.6771E+00
  0.6768E+00
  0.6758E+00
  0.6730E+00
  0.6670E+00
  0.6575E+00
  0.6460E+00
  0.6339E+00
  0.6218E+00
  0.6097E+00
  0.5984E+00
  0.5884E+00
  0.5797E+00
  0.5704E+00
  0.5609E+00
  0.5464E+00
  0.5242E+00
  0.4837E+00
  0.4234E+00
  0.3597E+00
  0.3053E+00
  0.2629E+00
  0.2323E+00
  0.2136E+00
  0.2044E+00
  0.2011E+00
  0.2002E+00
  0.2000E+00
  0.2000E+00
  0.2000E+00
  0.2000E+00
  0.2000E+00
  0.2000E+00
  0.2000E+00
  0.2000E+00
  0.2000E+00
  0.2000E+00
  0.2000E+00
  0.2000E+00
  0.2000E+00
  0.2000E+00
  0.2000E+00
  0.2000E+00
  0.2000E+00
  0.2000E+00
  0.2000E+00
  0.2000E+00
  0.2000E+00
  0.6780E+00
  0.6780E+00
  0.6780E+00
  0.6780E+00
  0.6780E+00
  0.6780E+00
  0.6780E+00
  0.6780E+00
  0.6780E+00
  0.6780E+00
  0.6780E+00
  0.6780E+00
  0.6780E+00
  0.6777E+00
  0.6768E+00
  0.6742E+00
  0.6690E+00
  0.6610E+00
  0.6507E+00
  0.6392E+00
  0.6267E+00
  0.6134E+00
  0.6005E+00
  0.5872E+00
  0.5709E+00
  0.5486E+00
  0.5160E+00
  0.4703E+00
  0.4136E+00
  0.3569E+00
  0.3072E+00
  0.2672E+00
  0.2371E+00
  0.2172E+00
  0.2064E+00
  0.2019E+00
  0.2004E+00
  0.2001E+00
  0.2000E+00
  0.2000E+00
  0.2000E+00
  0.2000E+00
  0.2000E+00
  0.2000E+00
  0.2000E+00
  0.2000E+00
  0.2000E+00
  0.2000E+00
  0.2000E+00
  0.2000E+00
  0.2000E+00
  0.2000E+00
  0.2000E+00
  0.2000E+00
  0.2000E+00
  0.2000E+00
  0.2000E+00
  0.2000E+00
  0.2000E+00
  0.2000E+00
  0.6296E+00
  0.6296E+00
  0.6296E+00
  0.6296E+00
  0.6296E+00
  0.6296E+00
  0.6296E+00
  0.6296E+00
  0.6296E+00
  0.6296E+00
  0.6296E+00
  0.6296E+00
  0.6295E+00
  0.6293E+00
  0.6285E+00
  0.6263E+00
  0.6217E+00
  0.6141E+00
  0.6033E+00
  0.5895E+00
  0.5725E+00
  0.5520E+00
  0.5266E+00
  0.4954E+00
  0.4575E+00
  0.4145E+00
  0.3694E+00
  0.3271E+00
  0.2892E+00
  0.2575E+00
  0.2330E+00
  0.2161E+00
  0.2065E+00
  0.2021E+00
  0.2005E+00
  0.2001E+00
  0.2000E+00
  0.2000E+00
  0.2000E+00
  0.2000E+00
  0.2000E+00
  0.2000E+00
  0.2000E+00
  0.2000E+00
  0.2000E+00
  0.2000E+00
  0.2000E+00
  0.2000E+00
  0.2000E+00
  0.2000E+00
  0.2000E+00
  0.2000E+00
  0.2000E+00
  0.2000E+00
  0.2000E+00
  0.2000E+00
  0.2000E+00
  0.2000E+00
  0.2000E+00
  0.2000E+00
  0.4330E+00
  0.4330E+00
  0.4330E+00
  0.4330E+00
  0.4330E+00
  0.4330E+00
  0.4330E+00
  0.4330E+00
  0.4330E+00
  0.4330E+00
  0.4330E+00
  0.4330E+00
  0.4330E+00
  0.4328E+00
  0.4323E+00
  0.4310E+00
  0.4282E+00
  0.4232E+00
  0.4154E+00
  0.4043E+00
  0.3896E+00
  0.3716E+00
  0.3504E+00
  0.3267E+00
  0.3022E+00
  0.2781E+00
  0.2558E+00
  0.2363E+00
  0.2209E+00
  0.2104E+00
  0.2043E+00
  0.2015E+00
  0.2004E+00
  0.2001E+00
  0.2000E+00
  0.2000E+00
  0.2000E+00
  0.2000E+00
  0.2000E+00
  0.2000E+00
  0.2000E+00
  0.2000E+00
  0.2000E+00
  0.2000E+00
  0.2000E+00
  0.2000E+00
  0.2000E+00
  0.2000E+00
  0.2000E+00
  0.2000E+00
  0.2000E+00
  0.2000E+00
  0.2000E+00
  0.2000E+00
  0.2000E+00
  0.2000E+00
  0.2000E+00
  0.2000E+00
  0.2000E+00
  0.2000E+00
  0.2722E+00
  0.2722E+00
  0.2722E+00
  0.2722E+00