# vtk DataFile Version 3.0
vtk output
ASCII
DATASET RECTILINEAR_GRID
DIMENSIONS          61          61 1
X_COORDINATES    61 double
  0.0000E+00
  0.1667E+00
  0.3333E+00
  0.5000E+00
  0.6667E+00
  0.8333E+00
  0.1000E+01
  0.1167E+01
  0.1333E+01
  0.1500E+01
  0.1667E+01
  0.1833E+01
  0.2000E+01
  0.2167E+01
  0.2333E+01
  0.2500E+01
  0.2667E+01
  0.2833E+01
  0.3000E+01
  0.3167E+01
  0.3333E+01
  0.3500E+01
  0.3667E+01
  0.3833E+01
  0.4000E+01
  0.4167E+01
  0.4333E+01
  0.4500E+01
  0.4667E+01
  0.4833E+01
  0.5000E+01
  0.5167E+01
  0.5333E+01
  0.5500E+01
  0.5667E+01
  0.5833E+01
  0.6000E+01
  0.6167E+01
  0.6333E+01
  0.6500E+01
  0.6667E+01
  0.6833E+01
  0.7000E+01
  0.7167E+01
  0.7333E+01
  0.7500E+01
  0.7667E+01
  0.7833E+01
  0.8000E+01
  0.8167E+01
  0.8333E+01
  0.8500E+01
  0.8667E+01
  0.8833E+01
  0.9000E+01
  0.9167E+01
  0.9333E+01
  0.9500E+01
  0.9667E+01
  0.9833E+01
  0.1000E+02
Y_COORDINATES    61 double
  0.0000E+00
  0.1667E+00
  0.3333E+00
  0.5000E+00
  0.6667E+00
  0.8333E+00
  0.1000E+01
  0.1167E+01
  0.1333E+01
  0.1500E+01
  0.1667E+01
  0.1833E+01
  0.2000E+01
  0.2167E+01
  0.2333E+01
  0.2500E+01
  0.2667E+01
  0.2833E+01
  0.3000E+01
  0.3167E+01
  0.3333E+01
  0.3500E+01
  0.3667E+01
  0.3833E+01
  0.4000E+01
  0.4167E+01
  0.4333E+01
  0.4500E+01
  0.4667E+01
  0.4833E+01
  0.5000E+01
  0.5167E+01
  0.5333E+01
  0.5500E+01
  0.5667E+01
  0.5833E+01
  0.6000E+01
  0.6167E+01
  0.6333E+01
  0.6500E+01
  0.6667E+01
  0.6833E+01
  0.7000E+01
  0.7167E+01
  0.7333E+01
  0.7500E+01
  0.7667E+01
  0.7833E+01
  0.8000E+01
  0.8167E+01
  0.8333E+01
  0.8500E+01
  0.8667E+01
  0.8833E+01
  0.9000E+01
  0.9167E+01
  0.9333E+01
  0.9500E+01
  0.9667E+01
  0.9833E+01
  0.1000E+02
Z_COORDINATES 1 double
0
CELL_DATA                 3600
FIELD FieldData 4
density 1                 3600 double
  0.1998E+01
  0.1998E+01
  0.1998E+01
  0.1998E+01
  0.1998E+01
  0.1998E+01
  0.1998E+01
  0.1998E+01
  0.1998E+01
  0.1998E+01
  0.1998E+01
  0.1998E+01
  0.1998E+01
  0.1998E+01
  0.1998E+01
  0.1998E+01
  0.1998E+01
  0.1998E+01
  0.1997E+01
  0.1990E+01
  0.1965E+01
  0.1902E+01
  0.1792E+01
  0.1648E+01
  0.1495E+01
  0.1345E+01
  0.1208E+01
  0.1088E+01
  0.9833E+00
  0.8919E+00
  0.8139E+00
  0.7552E+00
  0.7211E+00
  0.7022E+00
  0.6950E+00
  0.6866E+00
  0.6603E+00
  0.6176E+00
  0.5891E+00
  0.5872E+00
  0.5812E+00
  0.5005E+00
  0.3367E+00
  0.2339E+00
  0.2023E+00
  0.2000E+00
  0.2000E+00
  0.2000E+00
  0.2000E+00
  0.2000E+00
  0.2000E+00
  0.2000E+00
  0.2000E+00
  0.2000E+00
  0.2000E+00
  0.2000E+00
  0.2000E+00
  0.2000E+00
  0.2000E+00
  0.2000E+00
  0.1992E+01
  0.1992E+01
  0.1992E+01
  0.1992E+01
  0.1992E+01
  0.1992E+01
  0.1992E+01
  0.1992E+01
  0.1992E+01
  0.1992E+01
  0.1992E+01
  0.1992E+01
  0.1992E+01
  0.1992E+01
  0.1992E+01
  0.1992E+01
  0.1992E+01
  0.1991E+01
  0.1990E+01
  0.1983E+01
  0.1958E+01
  0.1896E+01
  0.1786E+01
  0.1644E+01
  0.1491E+01
  0.1342E+01
  0.1206E+01
  0.1086E+01
  0.9818E+00
  0.8908E+00
  0.8130E+00
  0.7545E+00
  0.7206E+00
  0.7019E+00
  0.6947E+00
  0.6863E+00
  0.6600E+00
  0.6173E+00
  0.5888E+00
  0.5870E+00
  0.5810E+00
  0.5004E+00
  0.3366E+00
  0.2339E+00
  0.2023E+00
  0.2000E+00
  0.2000E+00
  0.2000E+00
  0.2000E+00
  0.2000E+00
  0.2000E+00
  0.2000E+00
  0.2000E+00
  0.2000E+00
  0.2000E+00
  0.2000E+00
  0.2000E+00
  0.2000E+00
  0.2000E+00
  0.2000E+00
  0.1967E+01
  0.1967E+01
  0.1967E+01
  0.1967E+01
  0.1967E+01
  0.1967E+01
  0.1967E+01
  0.1967E+01
  0.1967E+01
  0.1967E+01
  0.1967E+01
  0.1967E+01
  0.1967E+01
  0.1967E+01
  0.1967E+01
  0.1967E+01
  0.1967E+01
  0.1966E+01
  0.1965E+01
  0.1958E+01
  0.1934E+01
  0.1873E+01
  0.1766E+01
  0.1626E+01
  0.1475E+01
  0.1329E+01
  0.1195E+01
  0.1077E+01
  0.9749E+00
  0.8854E+00
  0.8088E+00
  0.7512E+00
  0.7179E+00
  0.6997E+00
  0.6928E+00
  0.6846E+00
  0.6585E+00
  0.6159E+00
  0.5875E+00
  0.5857E+00
  0.5798E+00
  0.4994E+00
  0.3361E+00
  0.2337E+00
  0.2023E+00
  0.2000E+00
  0.2000E+00
  0.2000E+00
  0.2000E+00
  0.2000E+00
  0.2000E+00
  0.2000E+00
  0.2000E+00
  0.2000E+00
  0.2000E+00
  0.2000E+00
  0.2000E+00
  0.2000E+00
  0.2000E+00
  0.2000E+00
  0.1904E+01
  0.1904E+01
  0.1904E+01
  0.1904E+01
  0.1904E+01
  0.1904E+01
  0.1904E+01
  0.1904E+01
  0.1904E+01
  0.1904E+01
  0.1904E+01
  0.1904E+01
  0.1904E+01
  0.1904E+01
  0.1904E+01
  0.1904E+01
  0.1904E+01
  0.1904E+01
  0.1902E+01
  0.1896E+01
  0.1873E+01
  0.1815E+01
  0.1712E+01
  0.1578E+01
  0.1434E+01
  0.1293E+01
  0.1165E+01
  0.1052E+01
  0.9536E+00
  0.8676E+00
  0.7942E+00
  0.7391E+00
  0.7079E+00
  0.6910E+00
  0.6852E+00
  0.6776E+00
  0.6522E+00
  0.6099E+00
  0.5820E+00
  0.5806E+00
  0.5752E+00
  0.4961E+00
  0.3346E+00
  0.2333E+00
  0.2022E+00
  0.2000E+00
  0.2000E+00
  0.2000E+00
  0.2000E+00
  0.2000E+00
  0.2000E+00
  0.2000E+00
  0.2000E+00
  0.2000E+00
  0.2000E+00
  0.2000E+00
  0.2000E+00
  0.2000E+00
  0.2000E+00
  0.2000E+00
  0.1793E+01
  0.1793E+01
  0.1793E+01
  0.1793E+01
  0.1793E+01
  0.1793E+01
  0.1793E+01
  0.1793E+01
  0.1793E+01
  0.1793E+01
  0.1793E+01
  0.1793E+01
  0.1793E+01
  0.1793E+01
  0.1793E+01
  0.1793E+01
  0.1793E+01
  0.1793E+01
  0.1792E+01
  0.1786E+01
  0.1766E+01
  0.1712E+01
  0.1617E+01
  0.1491E+01
  0.1356E+01
  0.1224E+01
  0.1104E+01
  0.9990E+00
  0.9077E+00
  0.8279E+00
  0.7599E+00
  0.7095E+00
  0.6817E+00
  0.6672E+00
  0.6635E+00
  0.6577E+00
  0.6340E+00
  0.5930E+00
  0.5678E+00
  0.5681E+00
  0.5642E+00
  0.4884E+00
  0.3311E+00
  0.2322E+00
  0.2021E+00
  0.2000E+00
  0.2000E+00
  0.2000E+00
  0.2000E+00
  0.2000E+00
  0.2000E+00
  0.2000E+00
  0.2000E+00
  0.2000E+00
  0.2000E+00
  0.2000E+00
  0.2000E+00
  0.2000E+00
  0.2000E+00
  0.2000E+00
  0.1650E+01
  0.1650E+01
  0.1650E+01
  0.1650E+01
  0.1650E+01
  0.1650E+01
  0.1650E+01
  0.1650E+01
  0.1650E+01
  0.1650E+01
  0.1650E+01
  0.1650E+01
  0.1650E+01
  0.1650E+01
  0.1650E+01
  0.1650E+01
  0.1650E+01
  0.1649E+01
  0.1649E+01
  0.1644E+01
  0.1626E+01
  0.1578E+01
  0.1491E+01
  0.1376E+01
  0.1251E+01
  0.1129E+01
  0.1018E+01
  0.9218E+00
  0.8382E+00
  0.7655E+00
  0.7039E+00
  0.6589E+00
  0.6350E+00
  0.6228E+00
  0.6217E+00
  0.6186E+00
  0.5987E+00
  0.5619E+00
  0.5435E+00
  0.5477E+00
  0.5466E+00
  0.4761E+00
  0.3248E+00
  0.2302E+00
  0.2019E+00
  0.2000E+00
  0.2000E+00
  0.2000E+00
  0.2000E+00
  0.2000E+00
  0.2000E+00
  0.2000E+00
  0.2000E+00
  0.2000E+00
  0.2000E+00
  0.2000E+00
  0.2000E+00
  0.2000E+00
  0.2000E+00
  0.2000E+00
  0.1495E+01
  0.1495E+01
  0.1495E+01
  0.1495E+01
  0.1495E+01
  0.1495E+01
  0.1495E+01
  0.1495E+01
  0.1495E+01
  0.1495E+01
  0.1495E+01
  0.1495E+01
  0.1495E+01
  0.1495E+01
  0.1495E+01
  0.1495E+01
  0.1495E+01
  0.1495E+01
  0.1495E+01
  0.1491E+01
  0.1475E+01
  0.1434E+01
  0.1356E+01
  0.1251E+01
  0.1136E+01
  0.1024E+01
  0.9225E+00
  0.8338E+00
  0.7574E+00
  0.6912E+00
  0.6354E+00
  0.5952E+00
  0.5740E+00
  0.5637E+00
  0.5647E+00
  0.5642E+00
  0.5511E+00
  0.5229E+00
  0.5151E+00
  0.5247E+00
  0.5265E+00
  0.4587E+00
  0.3150E+00
  0.2269E+00
  0.2015E+00
  0.2000E+00
  0.2000E+00
  0.2000E+00
  0.2000E+00
  0.2000E+00
  0.2000E+00
  0.2000E+00
  0.2000E+00
  0.2000E+00
  0.2000E+00
  0.2000E+00
  0.2000E+00
  0.2000E+00
  0.2000E+00
  0.2000E+00
  0.1345E+01
  0.1345E+01
  0.1345E+01
  0.1345E+01
  0.1345E+01
  0.1345E+01
  0.1345E+01
  0.1345E+01
  0.1345E+01
  0.1345E+01
  0.1345E+01
  0.1345E+01
  0.1345E+01
  0.1345E+01
  0.1345E+01
  0.1345E+01
  0.1345E+01
  0.1345E+01
  0.1345E+01
  0.1342E+01
  0.1329E+01
  0.1293E+01
  0.1224E+01
  0.1129E+01
  0.1024E+01
  0.9213E+00
  0.8276E+00
  0.7461E+00
  0.6760E+00
  0.6155E+00
  0.5647E+00
  0.5285E+00
  0.5091E+00
  0.5003E+00
  0.5034E+00
  0.5073E+00
  0.5028E+00
  0.4874E+00
  0.4869E+00
  0.5037E+00
  0.5056E+00
  0.4356E+00
  0.3016E+00
  0.2224E+00
  0.2011E+00
  0.2000E+00
  0.2000E+00
  0.2000E+00
  0.2000E+00
  0.2000E+00
  0.2000E+00
  0.2000E+00
  0.2000E+00
  0.2000E+00
  0.2000E+00
  0.2000E+00
  0.2000E+00
  0.2000E+00
  0.2000E+00
  0.2000E+00
  0.1209E+01
  0.1209E+01
  0.1209E+01
  0.1209E+01
  0.1209E+01
  0.1209E+01
  0.1209E+01
  0.1209E+01
  0.1209E+01
  0.1209E+01
  0.1209E+01
  0.1209E+01
  0.1209E+01
  0.1209E+01
  0.1209E+01
  0.1209E+01
  0.1209E+01
  0.1209E+01
  0.1208E+01
  0.1206E+01
  0.1195E+01
  0.1165E+01
  0.1104E+01
  0.1018E+01
  0.9224E+00
  0.8276E+00
  0.7412E+00
  0.6660E+00
  0.6013E+00
  0.5454E+00
  0.4986E+00
  0.4658E+00
  0.4451E+00
  0.4421E+00
  0.4470E+00
  0.4592E+00
  0.4622E+00
  0.4585E+00
  0.4641E+00
  0.4860E+00
  0.4844E+00
  0.4070E+00
  0.2850E+00
  0.2170E+00
  0.2008E+00
  0.2000E+00
  0.2000E+00
  0.2000E+00
  0.2000E+00
  0.2000E+00
  0.2000E+00
  0.2000E+00
  0.2000E+00
  0.2000E+00
  0.2000E+00
  0.2000E+00
  0.2000E+00
  0.2000E+00
  0.2000E+00
  0.2000E+00
  0.1088E+01
  0.1088E+01
  0.1088E+01
  0.1088E+01
  0.1088E+01
  0.1088E+01
  0.1088E+01
  0.1088E+01
  0.1088E+01
  0.1088E+01
  0.1088E+01
  0.1088E+01
  0.1088E+01
  0.1088E+01
  0.1088E+01
  0.1088E+01
  0.1088E+01
  0.1088E+01
  0.1088E+01
  0.1086E+01
  0.1077E+01
  0.1052E+01
  0.9989E+00
  0.9217E+00
  0.8337E+00
  0.7460E+00
  0.6660E+00
  0.5964E+00
  0.5365E+00
  0.4850E+00
  0.4415E+00
  0.4120E+00
  0.3925E+00
  0.3923E+00
  0.4042E+00
  0.4277E+00
  0.4372E+00
  0.4366E+00
  0.4483E+00
  0.4702E+00
  0.4612E+00
  0.3736E+00
  0.2665E+00
  0.2115E+00
  0.2004E+00
  0.2000E+00
  0.2000E+00
  0.2000E+00
  0.2000E+00
  0.2000E+00
  0.2000E+00
  0.2000E+00
  0.2000E+00
  0.2000E+00
  0.2000E+00
  0.2000E+00
  0.2000E+00
  0.2000E+00
  0.2000E+00
  0.2000E+00
  0.9836E+00
  0.9836E+00
  0.9836E+00
  0.9836E+00
  0.9836E+00
  0.9836E+00
  0.9836E+00
  0.9836E+00
  0.9836E+00
  0.9836E+00
  0.9836E+00
  0.9836E+00
  0.9836E+00
  0.9836E+00
  0.9836E+00
  0.9836E+00
  0.9836E+00
  0.9835E+00
  0.9833E+00
  0.9818E+00
  0.9749E+00
  0.9535E+00
  0.9076E+00
  0.8381E+00
  0.7572E+00
  0.6759E+00
  0.6013E+00
  0.5365E+00
  0.4809E+00
  0.4329E+00
  0.3928E+00
  0.3644E+00
  0.3525E+00
  0.3559E+00
  0.3820E+00
  0.4200E+00
  0.4223E+00
  0.4216E+00
  0.4382E+00
  0.4546E+00
  0.4332E+00
  0.3372E+00
  0.2478E+00
  0.2068E+00
  0.2002E+00
  0.2000E+00
  0.2000E+00
  0.2000E+00
  0.2000E+00
  0.2000E+00
  0.2000E+00
  0.2000E+00
  0.2000E+00
  0.2000E+00
  0.2000E+00
  0.2000E+00
  0.2000E+00
  0.2000E+00
  0.2000E+00
  0.2000E+00
  0.8922E+00
  0.8922E+00
  0.8922E+00
  0.8922E+00
  0.8922E+00
  0.8922E+00
  0.8922E+00
  0.8922E+00
  0.8922E+00
  0.8922E+00
  0.8922E+00
  0.8922E+00
  0.8922E+00
  0.8922E+00
  0.8922E+00
  0.8922E+00
  0.8922E+00
  0.8921E+00
  0.8920E+00
  0.8908E+00
  0.8853E+00
  0.8676E+00
  0.8278E+00
  0.7654E+00
  0.6911E+00
  0.6154E+00
  0.5454E+00
  0.4850E+00
  0.4329E+00
  0.3873E+00
  0.3506E+00
  0.3248E+00
  0.3272E+00
  0.3534E+00
  0.3970E+00
  0.4160E+00
  0.4097E+00
  0.4129E+00
  0.4340E+00
  0.4380E+00
  0.3959E+00
  0.3012E+00
  0.2307E+00
  0.2035E+00
  0.2001E+00
  0.2000E+00
  0.2000E+00
  0.2000E+00
  0.2000E+00
  0.2000E+00
  0.2000E+00
  0.2000E+00
  0.2000E+00
  0.2000E+00
  0.2000E+00
  0.2000E+00
  0.2000E+00
  0.2000E+00
  0.2000E+00
  0.2000E+00
  0.8141E+00
  0.8141E+00
  0.8141E+00
  0.8141E+00
  0.8141E+00
  0.8141E+00
  0.8141E+00
  0.8141E+00
  0.8141E+00
  0.8141E+00
  0.8141E+00
  0.8141E+00
  0.8141E+00
  0.8141E+00
  0.8141E+00
  0.8141E+00
  0.8141E+00
  0.8140E+00
  0.8139E+00
  0.8130E+00
  0.8087E+00
  0.7941E+00
  0.7598E+00
  0.7038E+00
  0.6353E+00
  0.5646E+00
  0.4985E+00
  0.4414E+00
  0.3927E+00
  0.3506E+00
  0.3166E+00
  0.3174E+00
  0.3339E+00
  0.3719E+00
  0.4105E+00
  0.4091E+00
  0.4030E+00
  0.4135E+00
  0.4269E+00
  0.4151E+00
  0.3493E+00
  0.2686E+00
  0.2172E+00
  0.2015E+00
  0.2000E+00
  0.2000E+00
  0.2000E+00
  0.2000E+00
  0.2000E+00
  0.2000E+00
  0.2000E+00
  0.2000E+00
  0.2000E+00
  0.2000E+00
  0.2000E+00
  0.2000E+00
  0.2000E+00
  0.2000E+00
  0.2000E+00
  0.2000E+00
  0.7553E+00
  0.7553E+00
  0.7553E+00
  0.7553E+00
  0.7553E+00
  0.7553E+00
  0.7553E+00
  0.7553E+00
  0.7553E+00
  0.7553E+00
  0.7553E+00
  0.7553E+00
  0.7553E+00
  0.7553E+00
  0.7553E+00
  0.7553E+00
  0.7553E+00
  0.7553E+00
  0.7552E+00
  0.7545E+00
  0.7512E+00
  0.7391E+00
  0.7094E+00
  0.6588E+00
  0.5951E+00
  0.5284E+00
  0.4657E+00
  0.4120E+00
  0.3643E+00
  0.3250E+00
  0.3168E+00
  0.3236E+00
  0.3526E+00
  0.3920E+00
  0.4089E+00
  0.4042E+00
  0.4063E+00
  0.4165E+00
  0.4147E+00
  0.3772E+00
  0.3048E+00
  0.2415E+00
  0.2081E+00
  0.2005E+00
  0.2000E+00
  0.2000E+00
  0.2000E+00
  0.2000E+00
  0.2000E+00
  0.2000E+00
  0.2000E+00
  0.2000E+00
  0.2000E+00
  0.2000E+00
  0.2000E+00
  0.2000E+00
  0.2000E+00
  0.2000E+00
  0.2000E+00
  0.2000E+00
  0.7212E+00
  0.7212E+00
  0.7212E+00
  0.7212E+00
  0.7212E+00
  0.7212E+00
  0.7212E+00
  0.7212E+00
  0.7212E+00
  0.7212E+00
  0.7212E+00
  0.7212E+00
  0.7212E+00
  0.7212E+00
  0.7212E+00
  0.7212E+00
  0.7212E+00
  0.7212E+00
  0.7211E+00
  0.7206E+00
  0.7179E+00
  0.7078E+00
  0.6817E+00
  0.6349E+00
  0.5740E+00
  0.5091E+00
  0.4450E+00
  0.3924E+00
  0.3526E+00
  0.3270E+00
  0.3339E+00
  0.3525E+00
  0.3826E+00
  0.4055E+00
  0.4047E+00
  0.4046E+00
  0.4128E+00
  0.4127E+00
  0.3875E+00
  0.3296E+00
  0.2670E+00
  0.2216E+00
  0.2031E+00
  0.2002E+00
  0.2000E+00
  0.2000E+00
  0.2000E+00
  0.2000E+00
  0.2000E+00
  0.2000E+00
  0.2000E+00
  0.2000E+00
  0.2000E+00
  0.2000E+00
  0.2000E+00
  0.2000E+00
  0.2000E+00
  0.2000E+00
  0.2000E+00
  0.2000E+00
  0.7023E+00
  0.7023E+00
  0.7023E+00
  0.7023E+00
  0.7023E+00
  0.7023E+00
  0.7023E+00
  0.7023E+00
  0.7023E+00
  0.7023E+00
  0.7023E+00
  0.7023E+00
  0.7023E+00
  0.7023E+00
  0.7023E+00
  0.7023E+00
  0.7023E+00
  0.7023E+00
  0.7022E+00
  0.7019E+00
  0.6997E+00
  0.6909E+00
  0.6672E+00
  0.6228E+00
  0.5636E+00
  0.5003E+00
  0.4423E+00
  0.3924E+00
  0.3553E+00
  0.3540E+00
  0.3713E+00
  0.3925E+00
  0.4060E+00
  0.4068E+00
  0.4051E+00
  0.4075E+00
  0.4103E+00
  0.3911E+00
  0.3424E+00
  0.2861E+00
  0.2374E+00
  0.2092E+00
  0.2010E+00
  0.2000E+00
  0.2000E+00
  0.2000E+00
  0.2000E+00
  0.2000E+00
  0.2000E+00
  0.2000E+00
  0.2000E+00
  0.2000E+00
  0.2000E+00
  0.2000E+00
  0.2000E+00
  0.2000E+00
  0.2000E+00
  0.2000E+00
  0.2000E+00
  0.2000E+00
  0.6951E+00
  0.6951E+00
  0.6951E+00
  0.6951E+00
  0.6951E+00
  0.6951E+00
  0.6951E+00
  0.6951E+00
  0.6951E+00
  0.6951E+00
  0.6951E+00
  0.6951E+00
  0.6951E+00
  0.6951E+00
  0.6951E+00
  0.6951E+00
  0.6951E+00
  0.6951E+00
  0.6950E+00
  0.6947E+00
  0.6928E+00
  0.6851E+00
  0.6635E+00
  0.6217E+00
  0.5647E+00
  0.5034E+00
  0.4470E+00
  0.4042E+00
  0.3823E+00
  0.3972E+00
  0.4100E+00
  0.4085E+00
  0.4048E+00
  0.4050E+00
  0.4070E+00
  0.4069E+00
  0.3911E+00
  0.3474E+00
  0.2972E+00
  0.2507E+00
  0.2175E+00
  0.2032E+00
  0.2003E+00
  0.2000E+00
  0.2000E+00
  0.2000E+00
  0.2000E+00
  0.2000E+00
  0.2000E+00
  0.2000E+00
  0.2000E+00
  0.2000E+00
  0.2000E+00
  0.2000E+00
  0.2000E+00
  0.2000E+00
  0.2000E+00
  0.2000E+00
  0.2000E+00
  0.2000E+00
  0.6866E+00
  0.6866E+00
  0.6866E+00
  0.6866E+00
  0.6866E+00
  0.6866E+00
  0.6866E+00
  0.6866E+00
  0.6866E+00
  0.6866E+00
  0.6866E+00
  0.6866E+00
  0.6866E+00
  0.6866E+00
  0.6866E+00
  0.6866E+00
  0.6866E+00
  0.6866E+00
  0.6866E+00
  0.6863E+00
  0.6846E+00
  0.6776E+00
  0.6577E+00
  0.6186E+00
  0.5642E+00
  0.5074E+00
  0.4593E+00
  0.4279E+00
  0.4199E+00
  0.4157E+00
  0.4087E+00
  0.4042E+00
  0.4045E+00
  0.4074E+00
  0.4069E+00
  0.3901E+00
  0.3469E+00
  0.3006E+00
  0.2587E+00
  0.2254E+00
  0.2066E+00
  0.2009E+00
  0.2001E+00
  0.2000E+00
  0.2000E+00
  0.2000E+00
  0.2000E+00
  0.2000E+00
  0.2000E+00
  0.2000E+00
  0.2000E+00
  0.2000E+00
  0.2000E+00
  0.2000E+00
  0.2000E+00
  0.2000E+00
  0.2000E+00
  0.2000E+00
  0.2000E+00
  0.2000E+00
  0.6603E+00
  0.6603E+00
  0.6603E+00
  0.6603E+00
  0.6603E+00
  0.6603E+00
  0.6603E+00
  0.6603E+00
  0.6603E+00
  0.6603E+00
  0.6603E+00
  0.6603E+00
  0.6603E+00
  0.6603E+00
  0.6603E+00
  0.6603E+00
  0.6603E+00
  0.6603E+00
  0.6603E+00
  0.6600E+00
  0.6585E+00
  0.6521E+00
  0.6339E+00
  0.5986E+00
  0.5510E+00
  0.5026E+00
  0.4625E+00
  0.4372E+00
  0.4223E+00
  0.4092E+00
  0.4031E+00
  0.4065E+00
  0.4126E+00
  0.4099E+00
  0.3912E+00
  0.3470E+00
  0.2996E+00
  0.2604E+00
  0.2306E+00
  0.2102E+00
  0.2020E+00
  0.2002E+00
  0.2000E+00
  0.2000E+00
  0.2000E+00
  0.2000E+00
  0.2000E+00
  0.2000E+00
  0.2000E+00
  0.2000E+00
  0.2000E+00
  0.2000E+00
  0.2000E+00
  0.2000E+00
  0.2000E+00
  0.2000E+00
  0.2000E+00
  0.2000E+00
  0.2000E+00
  0.2000E+00
  0.6177E+00
  0.6177E+00
  0.6177E+00
  0.6177E+00
  0.6177E+00
  0.6177E+00
  0.6177E+00
  0.6177E+00
  0.6177E+00
  0.6177E+00
  0.6177E+00
  0.6177E+00
  0.6177E+00
  0.6177E+00
  0.6177E+00
  0.6177E+00
  0.6177E+00
  0.6176E+00
  0.6176E+00
  0.6173E+00
  0.6159E+00
  0.6098E+00
  0.5930E+00
  0.5618E+00
  0.5228E+00
  0.4875E+00
  0.4584E+00
  0.4365E+00
  0.4214E+00
  0.4126E+00
  0.4134E+00
  0.4167E+00
  0.4126E+00
  0.3912E+00
  0.3474E+00
  0.3006E+00
  0.2604E+00
  0.2314E+00
  0.2125E+00
  0.2033E+00
  0.2004E+00
  0.2000E+00
  0.2000E+00
  0.2000E+00
  0.2000E+00
  0.2000E+00
  0.2000E+00
  0.2000E+00
  0.2000E+00
  0.2000E+00
  0.2000E+00
  0.2000E+00
  0.2000E+00
  0.2000E+00
  0.2000E+00
  0.2000E+00
  0.2000E+00
  0.2000E+00
  0.2000E+00
  0.2000E+00
  0.5891E+00
  0.5891E+00
  0.5891E+00
  0.5891E+00
  0.5891E+00
  0.5891E+00
  0.5891E+00
  0.5891E+00
  0.5891E+00
  0.5891E+00
  0.5891E+00
  0.5891E+00
  0.5891E+00
  0.5891E+00
  0.5891E+00
  0.5891E+00
  0.5891E+00
  0.5891E+00
  0.5891E+00
  0.5888E+00
  0.5875E+00
  0.5820E+00
  0.5677E+00
  0.5435E+00
  0.5151E+00
  0.4869E+00
  0.4641E+00
  0.4481E+00
  0.4381E+00
  0.4340E+00
  0.4271E+00
  0.4148E+00
  0.3874E+00
  0.3424E+00
  0.2972E+00
  0.2586E+00
  0.2306E+00
  0.2125E+00
  0.2040E+00
  0.2007E+00
  0.2001E+00
  0.2000E+00
  0.2000E+00
  0.2000E+00
  0.2000E+00
  0.2000E+00
  0.2000E+00
  0.2000E+00
  0.2000E+00
  0.2000E+00
  0.2000E+00
  0.2000E+00
  0.2000E+00
  0.2000E+00
  0.2000E+00
  0.2000E+00
  0.2000E+00
  0.2000E+00
  0.2000E+00
  0.2000E+00
  0.5872E+00
  0.5872E+00
  0.5872E+00
  0.5872E+00
  0.5872E+00
  0.5872E+00
  0.5872E+00
  0.5872E+00
  0.5872E+00
  0.5872E+00
  0.5872E+00
  0.5872E+00
  0.5872E+00
  0.5872E+00
  0.5872E+00
  0.5872E+00
  0.5872E+00
  0.5872E+00
  0.5872E+00
  0.5870E+00
  0.5857E+00
  0.5806E+00
  0.5681E+00
  0.5476E+00
  0.5247E+00
  0.5038E+00
  0.4861E+00
  0.4702E+00
  0.4547E+00
  0.4379E+00
  0.4151E+00
  0.3770E+00
  0.3297E+00
  0.2861E+00
  0.2506E+00
  0.2254E+00
  0.2102E+00
  0.2033E+00
  0.2007E+00
  0.2001E+00
  0.2000E+00
  0.2000E+00
  0.2000E+00
  0.2000E+00
  0.2000E+00
  0.2000E+00
  0.2000E+00
  0.2000E+00
  0.2000E+00
  0.2000E+00
  0.2000E+00
  0.2000E+00
  0.2000E+00
  0.2000E+00
  0.2000E+00
  0.2000E+00
  0.2000E+00
  0.2000E+00
  0.2000E+00
  0.2000E+00
  0.5812E+00
  0.5812E+00
  0.5812E+00
  0.5812E+00
  0.5812E+00
  0.5812E+00
  0.5812E+00
  0.5812E+00
  0.5812E+00
  0.5812E+00
  0.5812E+00
  0.5812E+00
  0.5812E+00
  0.5812E+00
  0.5812E+00
  0.5812E+00
  0.5812E+00
  0.5812E+00
  0.5812E+00
  0.5810E+00
  0.5798E+00
  0.5752E+00
  0.5642E+00
  0.5466E+00
  0.5265E+00
  0.5057E+00
  0.4844E+00
  0.4612E+00
  0.4332E+00
  0.3960E+00
  0.3491E+00
  0.3048E+00
  0.2670E+00
  0.2374E+00
  0.2175E+00
  0.2066E+00
  0.2020E+00
  0.2004E+00
  0.2001E+00
  0.2000E+00
  0.2000E+00
  0.2000E+00
  0.2000E+00
  0.2000E+00
  0.2000E+00
  0.2000E+00
  0.2000E+00
  0.2000E+00
  0.2000E+00
  0.2000E+00
  0.2000E+00
  0.2000E+00
  0.2000E+00
  0.2000E+00
  0.2000E+00
  0.2000E+00
  0.2000E+00
  0.2000E+00
  0.2000E+00
  0.2000E+00
  0.5006E+00
  0.5006E+00
  0.5006E+00
  0.5006E+00
  0.5006E+00
  0.5006E+00
  0.5006E+00
  0.5006E+00
  0.5006E+00
  0.5006E+00
  0.5006E+00
  0.5006E+00
  0.5006E+00
  0.5006E+00
  0.5006E+00
  0.5006E+00
  0.5006E+00
  0.5006E+00
  0.5005E+00
  0.5004E+00
  0.4994E+00
  0.4960E+00
  0.4883E+00
  0.4760E+00
  0.4586E+00
  0.4355E+00
  0.4069E+00
  0.3736E+00
  0.3371E+00
  0.3012E+00
  0.2686E+00
  0.2415E+00
  0.2216E+00
  0.2093E+00
  0.2032E+00
  0.2009E+00
  0.2002E+00
  0.2000E+00
  0.2000E+00
  0.2000E+00
  0.2000E+00
  0.2000E+00
  0.2000E+00
  0.2000E+00
  0.2000E+00
  0.2000E+00
  0.2000E+00
  0.2000E+00
  0.2000E+00
  0.2000E+00
  0.2000E+00
  0.2000E+00
  0.2000E+00
  0.2000E+00
  0.2000E+00
  0.2000E+00
  0.2000E+00
  0.2000E+00
  0.2000E+00
  0.2000E+00
  0.3367E+00
  0.3367E+00
  0.3367E+00
  0.3367E+00
  0.3367E+00
  0.3367E+00
  0.3367E+00
  0.3367E+00
  0.3367E+00
  0.3367E+00
  0.3367E+00
  0.3367E+00
  0.3367E+00
  0.3367E+00
  0.3367E+00
  0.3367E+00
  0.3367E+00
  0.3367E+00
  0.3367E+00
  0.3366E+00
  0.3361E+00
  0.3346E+00
  0.3310E+00
  0.3247E+00
  0.3150E+00
  0.3015E+00
  0.2850E+00
  0.2665E+00
  0.2478E+00
  0.2307E+00
  0.2172E+00
  0.2081E+00
  0.2032E+00
  0.2010E+00
  0.2003E+00
  0.2001E+00
  0.2000E+00
  0.2000E+00
  0.2000E+00
  0.2000E+00
  0.2000E+00
  0.2000E+00
  0.2000E+00
  0.2000E+00
  0.2000E+00
  0.2000E+00
  0.2000E+00
  0.2000E+00
  0.2000E+00
  0.2000E+00
  0.2000E+00
  0.2000E+00
  0.2000E+00
  0.2000E+00
  0.2000E+00
  0.2000E+00
  0.2000E+00
  0.2000E+00
  0.2000E+00
  0.2000E+00
  0.2339E+00
  0.2339E+00
  0.2339E+00
  0.2339E+00
  0.2339E+00
  0.2339E+00
  0.2339E+00
  0.2339E+00
  0.2339E+00
  0.2339E+00
  0.2339E+00
  0.2339E+00
  0.2339E+00
  0.2339E+00
  0.2339E+00
  0.2339E+00
  0.2339E+00
  0.2339E+00
  0.2339E+00
  0.2339E+00
  0.2337E+00
  0.2333E+00
  0.2322E+00
  0.2302E+00
  0.2269E+00
  0.2224E+00
  0.2170E+00
  0.2115E+00
  0.2068E+00
  0.2035E+00
  0.2015E+00
  0.2005E+00
  0.2002E+00
  0.2000E+00
  0.2000E+00
  0.2000E+00
  0.2000E+00
  0.2000E+00
  0.2000E+00
  0.2000E+00
  0.2000E+00
  0.2000E+00
  0.2000E+00
  0.2000E+00
  0.2000E+00
  0.2000E+00
  0.2000E+00
  0.2000E+00
  0.2000E+00
  0.2000E+00
  0.2000E+00
  0.2000E+00
  0.2000E+00
  0.2000E+00
  0.2000E+00
  0.2000E+00
  0.2000E+00
  0.2000E+00
  0.2000E+00
  0.2000E+00
  0.2023E+00
  0.2023E+00
  0.2023E+00
  0.2023E+00
  0.2023E+00
  0.2023E+00
  0.2023E+00
  0.2023E+00
  0.2023E+00
  0.2023E+00
  0.2023E+00
  0.2023E+00
  0.2023E+00
  0.2023E+00
  0.2023E+00
  0.2023E+00
  0.2023E+00
  0.2023E+00
  0.2023E+00
  0.2023E+00
  0.2023E+00
  0.2022E+00
  0.2021E+00
  0.2019E+00
  0.2015E+00
  0.2011E+00
  0.2008E+00
  0.2004E+00
  0.2002E+00
  0.2001E+00
  0.2000E+00
  0.2000E+00
  0.2000E+00
  0.2000E+00
  0.2000E+00
  0.2000E+00
  0.2000E+00
  0.2000E+00
  0.2000E+00
  0.2000E+00
  0.2000E+00
  0.2000E+00
  0.2000E+00
  0.2000E+00
  0.2000E+00
  0.2000E+00
  0.2000E+00
  0.2000E+00
  0.2000E+00
  0.2000E+00
  0.2000E+00
  0.2000E+00
  0.2000E+00
  0.2000E+00
  0.2000E+00
  0.2000E+00
  0.2000E+00
  0.2000E+00
  0.2000E+00
  0.2000E+00
  0.2000E+00
  0.2000E+00
  0.2000E+00
  0.2000E+00
  0.2000E+00
  0.2000E+00
  0.2000E+00
  0.2000E+00
  0.2000E+00
  0.2000E+00
  0.2000E+00
  0.2000E+00
  0.2000E+00
  0.2000E+00
  0.2000E+00
  0.2000E+00
  0.2000E+00
  0.2000E+00
  0.2000E+00
  0.2000E+00
  0.2000E+00
  0.2000E+00
  0.2000E+00
  0.2000E+00
  0.2000E+00
  0.2000E+00
  0.2000E+00
  0.2000E+00
  0.2000E+00
  0.2000E+00
  0.2000E+00
  0.2000E+00
  0.2000E+00
  0.2000E+00
  0.2000E+00
  0.2000E+00
  0.2000E+00
  0.2000E+00
  0.2000E+00
  0.2000E+00
  0.2000E+00
  0.2000E+00
  0.2000E+00
  0.2000E+00
  0.2000E+00
  0.2000E+00
  0.2000E+00
  0.2000E+00
  0.2000E+00
  0.2000E+00
  0.2000E+00
  0.2000E+00
  0.2000E+00
  0.2000E+00
  0.2000E+00
  0.2000E+00
  0.2000E+00
  0.2000E+00
  0.2000E+00
  0.2000E+00
  0.2000E+00
  0.2000E+00
  0.2000E+00
  0.2000E+00
  0.2000E+00
  0.2000E+00
  0.2000E+00
  0.2000E+00
  0.2000E+00
  0.2000E+00
  0.2000E+00
  0.2000E+00
  0.2000E+00
  0.2000E+00
  0.2000E+00
  0.2000E+00
  0.2000E+00
  0.2000E+00
  0.2000E+00
  0.2000E+00
  0.2000E+00
  0.2000E+00
  0.2000E+00
  0.2000E+00
  0.2000E+00
  0.2000E+00
  0.2000E+00
  0.2000E+00
  0.2000E+00
  0.2000E+00
  0.2000E+00
  0.2000E+00
  0.2000E+00
  0.2000E+00
  0.2000E+00
  0.2000E+00
  0.2000E+00
  0.2000E+00
  0.2000E+00
  0.2000E+00
  0.2000E+00
  0.2000E+00
  0.2000E+00
  0.2000E+00
  0.2000E+00
  0.2000E+00
  0.2000E+00
  0.2000E+00
  0.2000E+00
  0.2000E+00
  0.2000E+00
  0.2000E+00
  0.2000E+00
  0.2000E+00
  0.2000E+00
  0.2000E+00
  0.2000E+00
  0.2000E+00
  0.2000E+00
  0.2000E+00
  0.2000E+00
  0.2000E+00
  0.2000E+00
  0.2000E+00
  0.2000E+00
  0.2000E+00
  0.2000E+00
  0.2000E+00
  0.2000E+00
  0.2000E+00
  0.2000E+00
  0.2000E+00
  0.2000E+00
  0.2000E+00
  0.2000E+00
  0.2000E+00
  0.2000E+00
  0.2000E+00
  0.2000E+00
  0.2000E+00
  0.2000E+00
  0.2000E+00
  0.2000E+00
  0.2000E+00
  0.2000E+00
  0.2000E+00
  0.2000E+00
  0.2000E+00
  0.2000E+00
  0.2000E+00
  0.2000E+00
  0.2000E+00
  0.2000E+00
  0.2000E+00
  0.2000E+00
  0.2000E+00
  0.2000E+00
  0.2000E+00
  0.2000E+00
  0.2000E+00
  0.2000E+00
  0.2000E+00
  0.2000E+00
  0.2000E+00
  0.2000E+00
  0.2000E+00
  0.2000E+00
  0.2000E+00
  0.2000E+00
  0.2000E+00
  0.2000E+00
  0.2000E+00
  0.2000E+00
  0.2000E+00
  0.2000E+00
  0.2000E+00
  0.2000E+00
  0.2000E+00
  0.2000E+00
  0.2000E+00
  0.2000E+00
  0.2000E+00
  0.2000E+00
  0.2000E+00
  0.2000E+00
  0.2000E+00
  0.2000E+00
  0.2000E+00
  0.2000E+00
  0.2000E+00
  0.2000E+00
  0.2000E+00
  0.2000E+00
  0.2000E+00
  0.2000E+00
  0.2000E+00
  0.2000E+00
  0.2000E+00
  0.2000E+00
  0.2000E+00
  0.2000E+00
  0.2000E+00
  0.2000E+00
  0.2000E+00
  0.2000E+00
  0.2000E+00
  0.2000E+00
  0.2000E+00
  0.2000E+00
  0.2000E+00
  0.2000E+00
  0.2000E+00
  0.2000E+00
  0.2000E+00
  0.2000E+00
  0.2000E+00
  0.2000E+00
  0.2000E+00
  0.2000E+00
  0.2000E+00
  0.2000E+00
  0.2000E+00
  0.2000E+00
  0.2000E+00
  0.2000E+00
  0.2000E+00
  0.2000E+00
  0.2000E+00
  0.2000E+00
  0.2000E+00
  0.2000E+00
  0.2000E+00
  0.2000E+00
  0.2000E+00
  0.2000E+00
  0.2000E+00
  0.2000E+00
  0.2000E+00
  0.2000E+00
  0.2000E+00
  0.2000E+00
  0.2000E+00
  0.2000E+00
  0.2000E+00
  0.2000E+00
  0.2000E+00
  0.2000E+00
  0.2000E+00
  0.2000E+00
  0.2000E+00
  0.2000E+00
  0.2000E+00
  0.2000E+00
  0.2000E+00
  0.2000E+00
  0.2000E+00
  0.2000E+00
  0.2000E+00
  0.2000E+00
  0.2000E+00
  0.2000E+00
  0.2000E+00
  0.2000E+00
  0.2000E+00
  0.2000E+00
  0.2000E+00
  0.2000E+00
  0.2000E+00
  0.2000E+00
  0.2000E+00
  0.2000E+00
  0.2000E+00
  0.2000E+00
  0.2000E+00
  0.2000E+00
  0.2000E+00
  0.2000E+00
  0.2000E+00
  0.2000E+00
  0.2000E+00
  0.2000E+00
  0.2000E+00
  0.2000E+00
  0.2000E+00
  0.2000E+00
  0.2000E+00
  0.2000E+00
  0.2000E+00
  0.2000E+00
  0.2000E+00
  0.2000E+00
  0.2000E+00
  0.2000E+00
  0.2000E+00
  0.2000E+00
  0.2000E+00
  0.2000E+00
  0.2000E+00
  0.2000E+00
  0.2000E+00
  0.2000E+00
  0.2000E+00
  0.2000E+00
  0.2000E+00
  0.2000E+00
  0.2000E+00
  0.2000E+00
  0.2000E+00
  0.2000E+00
  0.2000E+00
  0.2000E+00
  0.2000E+00
  0.2000E+00
  0.2000E+00
  0.2000E+00
  0.2000E+00
  0.2000E+00
  0.2000E+00
  0.2000E+00
  0.2000E+00
  0.2000E+00
  0.2000E+00
  0.2000E+00
  0.2000E+00
  0.2000E+00
  0.2000E+00
  0.2000E+00
  0.2000E+00
  0.2000E+00
  0.2000E+00
  0.2000E+00
  0.2000E+00
  0.2000E+00
  0.2000E+00
  0.2000E+00
  0.2000E+00
  0.2000E+00
  0.2000E+00
  0.2000E+00
  0.2000E+00
  0.2000E+00
  0.2000E+00
  0.2000E+00
  0.2000E+00
  0.2000E+00
  0.2000E+00
  0.2000E+00
  0.2000E+00
  0.2000E+00
  0.2000E+00
  0.2000E+00
  0.2000E+00
  0.2000E+00
  0.2000E+00
  0.2000E+00
  0.2000E+00
  0.2000E+00
  0.2000E+00
  0.2000E+00
  0.2000E+00
  0.2000E+00
  0.2000E+00
  0.2000E+00
  0.2000E+00
  0.2000E+00
  0.2000E+00
  0.2000E+00
  0.2000E+00
  0.2000E+00
  0.2000E+00
  0.2000E+00
  0.2000E+00
  0.2000E+00
  0.2000E+00
  0.2000E+00
  0.2000E+00
  0.2000E+00
  0.2000E+00
  0.2000E+00
  0.2000E+00
  0.2000E+00
  0.2000E+00
  0.2000E+00
  0.2000E+00
  0.2000E+00
  0.2000E+00
  0.2000E+00
  0.2000E+00
  0.2000E+00
  0.2000E+00
  0.2000E+00
  0.2000E+00
  0.2000E+00
  0.2000E+00
  0.2000E+00
  0.2000E+00
  0.2000E+00
  0.2000E+00
  0.2000E+00
  0.2000E+00
  0.2000E+00
  0.2000E+00
  0.2000E+00
  0.2000E+00
  0.2000E+00
  0.2000E+00
  0.2000E+00
  0.2000E+00
  0.2000E+00
  0.2000E+00
  0.2000E+00
  0.2000E+00
  0.2000E+00
  0.2000E+00
  0.2000E+00
  0.2000E+00
  0.2000E+00
  0.2000E+00
  0.2000E+00
  0.2000E+00
  0.2000E+00
  0.2000E+00
  0.2000E+00
  0.2000E+00
  0.2000E+00
  0.2000E+00
  0.2000E+00
  0.2000E+00
  0.2000E+00
  0.2000E+00
  0.2000E+00
  0.2000E+00
  0.2000E+00
  0.2000E+00
  0.2000E+00
  0.2000E+00
  0.2000E+00
  0.2000E+00
  0.2000E+00
  0.2000E+00
  0.2000E+00
  0.2000E+00
  0.2000E+00
  0.2000E+00
  0.2000E+00
  0.2000E+00
  0.2000E+00
  0.2000E+00
  0.2000E+00
  0.2000E+00
  0.2000E+00
  0.2000E+00
  0.2000E+00
  0.2000E+00
  0.2000E+00
  0.2000E+00
  0.2000E+00
  0.2000E+00
  0.2000E+00
  0.2000E+00
  0.2000E+00
  0.2000E+00
  0.2000E+00
  0.2000E+00
  0.2000E+00
  0.2000E+00
  0.2000E+00
  0.2000E+00
  0.2000E+00
  0.2000E+00
  0.2000E+00
  0.2000E+00
  0.2000E+00
  0.2000E+00
  0.2000E+00
  0.2000E+00
  0.2000E+00
  0.2000E+00
  0.2000E+00
  0.2000E+00
  0.2000E+00
  0.2000E+00
  0.2000E+00
  0.2000E+00
  0.2000E+00
  0.2000E+00
  0.2000E+00
  0.2000E+00
  0.2000E+00
  0.2000E+00
  0.2000E+00
  0.2000E+00
  0.2000E+00
  0.2000E+00
  0.2000E+00
  0.2000E+00
  0.2000E+00
  0.2000E+00
  0.2000E+00
  0.2000E+00
  0.2000E+00
  0.2000E+00
  0.2000E+00
  0.2000E+00
  0.2000E+00
  0.2000E+00
  0.2000E+00
  0.2000E+00
  0.2000E+00
  0.2000E+00
  0.2000E+00
  0.2000E+00
  0.2000E+00
  0.2000E+00
  0.2000E+00
  0.2000E+00
  0.2000E+00
  0.2000E+00
  0.2000E+00
  0.2000E+00
  0.2000E+00
  0.2000E+00
  0.2000E+00
  0.2000E+00
  0.2000E+00
  0.2000E+00
  0.2000E+00
  0.2000E+00
  0.2000E+00
  0.2000E+00
  0.2000E+00
  0.2000E+00
  0.2000E+00
  0.2000E+00
  0.2000E+00
  0.2000E+00
  0.2000E+00
  0.2000E+00
  0.2000E+00
  0.2000E+00
  0.2000E+00
  0.2000E+00
  0.2000E+00
  0.2000E+00