# vtk DataFile Version 3.0
vtk output
ASCII
DATASET RECTILINEAR_GRID
DIMENSIONS          61          61 1
X_COORDINATES    61 double
  0.0000E+00
  0.1667E+00
  0.3333E+00
  0.5000E+00
  0.6667E+00
  0.8333E+00
  0.1000E+01
  0.1167E+01
  0.1333E+01
  0.1500E+01
  0.1667E+01
  0.1833E+01
  0.2000E+01
  0.2167E+01
  0.2333E+01
  0.2500E+01
  0.2667E+01
  0.2833E+01
  0.3000E+01
  0.3167E+01
  0.3333E+01
  0.3500E+01
  0.3667E+01
  0.3833E+01
  0.4000E+01
  0.4167E+01
  0.4333E+01
  0.4500E+01
  0.4667E+01
  0.4833E+01
  0.5000E+01
  0.5167E+01
  0.5333E+01
  0.5500E+01
  0.5667E+01
  0.5833E+01
  0.6000E+01
  0.6167E+01
  0.6333E+01
  0.6500E+01
  0.6667E+01
  0.6833E+01
  0.7000E+01
  0.7167E+01
  0.7333E+01
  0.7500E+01
  0.7667E+01
  0.7833E+01
  0.8000E+01
  0.8167E+01
  0.8333E+01
  0.8500E+01
  0.8667E+01
  0.8833E+01
  0.9000E+01
  0.9167E+01
  0.9333E+01
  0.9500E+01
  0.9667E+01
  0.9833E+01
  0.1000E+02
Y_COORDINATES    61 double
  0.0000E+00
  0.1667E+00
  0.3333E+00
  0.5000E+00
  0.6667E+00
  0.8333E+00
  0.1000E+01
  0.1167E+01
  0.1333E+01
  0.1500E+01
  0.1667E+01
  0.1833E+01
  0.2000E+01
  0.2167E+01
  0.2333E+01
  0.2500E+01
  0.2667E+01
  0.2833E+01
  0.3000E+01
  0.3167E+01
  0.3333E+01
  0.3500E+01
  0.3667E+01
  0.3833E+01
  0.4000E+01
  0.4167E+01
  0.4333E+01
  0.4500E+01
  0.4667E+01
  0.4833E+01
  0.5000E+01
  0.5167E+01
  0.5333E+01
  0.5500E+01
  0.5667E+01
  0.5833E+01
  0.6000E+01
  0.6167E+01
  0.6333E+01
  0.6500E+01
  0.6667E+01
  0.6833E+01
  0.7000E+01
  0.7167E+01
  0.7333E+01
  0.7500E+01
  0.7667E+01
  0.7833E+01
  0.8000E+01
  0.8167E+01
  0.8333E+01
  0.8500E+01
  0.8667E+01
  0.8833E+01
  0.9000E+01
  0.9167E+01
  0.9333E+01
  0.9500E+01
  0.9667E+01
  0.9833E+01
  0.1000E+02
Z_COORDINATES 1 double
0
CELL_DATA                 3600
FIELD FieldData 4
density 1                 3600 double
  0.7631E+00
  0.7631E+00
  0.7630E+00
  0.7630E+00
  0.7627E+00
  0.7617E+00
  0.7590E+00
  0.7530E+00
  0.7418E+00
  0.7251E+00
  0.7041E+00
  0.6805E+00
  0.6560E+00
  0.6316E+00
  0.6075E+00
  0.5840E+00
  0.5612E+00
  0.5392E+00
  0.5179E+00
  0.4976E+00
  0.4781E+00
  0.4595E+00
  0.4418E+00
  0.4249E+00
  0.4089E+00
  0.3937E+00
  0.3792E+00
  0.3655E+00
  0.3526E+00
  0.3405E+00
  0.3292E+00
  0.3188E+00
  0.3093E+00
  0.3009E+00
  0.2944E+00
  0.2906E+00
  0.2905E+00
  0.2928E+00
  0.2976E+00
  0.3029E+00
  0.3078E+00
  0.3123E+00
  0.3173E+00
  0.3240E+00
  0.3337E+00
  0.3470E+00
  0.3637E+00
  0.3805E+00
  0.3893E+00
  0.3890E+00
  0.3850E+00
  0.3842E+00
  0.3875E+00
  0.3993E+00
  0.4155E+00
  0.4324E+00
  0.4495E+00
  0.4979E+00
  0.6489E+00
  0.7603E+00
  0.7627E+00
  0.7627E+00
  0.7627E+00
  0.7626E+00
  0.7623E+00
  0.7614E+00
  0.7587E+00
  0.7526E+00
  0.7416E+00
  0.7249E+00
  0.7038E+00
  0.6803E+00
  0.6558E+00
  0.6314E+00
  0.6073E+00
  0.5838E+00
  0.5610E+00
  0.5390E+00
  0.5177E+00
  0.4974E+00
  0.4779E+00
  0.4593E+00
  0.4416E+00
  0.4247E+00
  0.4087E+00
  0.3935E+00
  0.3790E+00
  0.3653E+00
  0.3524E+00
  0.3403E+00
  0.3290E+00
  0.3185E+00
  0.3090E+00
  0.3006E+00
  0.2942E+00
  0.2903E+00
  0.2902E+00
  0.2925E+00
  0.2972E+00
  0.3025E+00
  0.3075E+00
  0.3122E+00
  0.3175E+00
  0.3248E+00
  0.3351E+00
  0.3492E+00
  0.3664E+00
  0.3829E+00
  0.3910E+00
  0.3905E+00
  0.3862E+00
  0.3853E+00
  0.3885E+00
  0.4004E+00
  0.4165E+00
  0.4331E+00
  0.4498E+00
  0.4950E+00
  0.6416E+00
  0.7924E+00
  0.7620E+00
  0.7620E+00
  0.7620E+00
  0.7619E+00
  0.7616E+00
  0.7607E+00
  0.7580E+00
  0.7520E+00
  0.7410E+00
  0.7244E+00
  0.7034E+00
  0.6799E+00
  0.6554E+00
  0.6309E+00
  0.6069E+00
  0.5834E+00
  0.5606E+00
  0.5385E+00
  0.5173E+00
  0.4970E+00
  0.4775E+00
  0.4589E+00
  0.4412E+00
  0.4243E+00
  0.4082E+00
  0.3930E+00
  0.3785E+00
  0.3648E+00
  0.3519E+00
  0.3398E+00
  0.3285E+00
  0.3180E+00
  0.3085E+00
  0.3001E+00
  0.2936E+00
  0.2897E+00
  0.2895E+00
  0.2917E+00
  0.2964E+00
  0.3018E+00
  0.3070E+00
  0.3121E+00
  0.3181E+00
  0.3265E+00
  0.3383E+00
  0.3539E+00
  0.3718E+00
  0.3880E+00
  0.3943E+00
  0.3933E+00
  0.3883E+00
  0.3872E+00
  0.3905E+00
  0.4026E+00
  0.4184E+00
  0.4348E+00
  0.4510E+00
  0.4916E+00
  0.6306E+00
  0.7969E+00
  0.7609E+00
  0.7609E+00
  0.7609E+00
  0.7608E+00
  0.7605E+00
  0.7596E+00
  0.7570E+00
  0.7511E+00
  0.7401E+00
  0.7236E+00
  0.7027E+00
  0.6792E+00
  0.6548E+00
  0.6303E+00
  0.6062E+00
  0.5827E+00
  0.5599E+00
  0.5379E+00
  0.5167E+00
  0.4963E+00
  0.4768E+00
  0.4582E+00
  0.4405E+00
  0.4236E+00
  0.4076E+00
  0.3923E+00
  0.3779E+00
  0.3642E+00
  0.3512E+00
  0.3391E+00
  0.3277E+00
  0.3173E+00
  0.3077E+00
  0.2993E+00
  0.2927E+00
  0.2887E+00
  0.2886E+00
  0.2907E+00
  0.2953E+00
  0.3007E+00
  0.3062E+00
  0.3121E+00
  0.3194E+00
  0.3296E+00
  0.3436E+00
  0.3613E+00
  0.3801E+00
  0.3956E+00
  0.3995E+00
  0.3975E+00
  0.3914E+00
  0.3899E+00
  0.3934E+00
  0.4057E+00
  0.4214E+00
  0.4374E+00
  0.4535E+00
  0.4882E+00
  0.6146E+00
  0.8131E+00
  0.7594E+00
  0.7594E+00
  0.7594E+00
  0.7594E+00
  0.7591E+00
  0.7582E+00
  0.7556E+00
  0.7498E+00
  0.7390E+00
  0.7226E+00
  0.7017E+00
  0.6783E+00
  0.6539E+00
  0.6294E+00
  0.6053E+00
  0.5819E+00
  0.5591E+00
  0.5370E+00
  0.5158E+00
  0.4954E+00
  0.4759E+00
  0.4573E+00
  0.4396E+00
  0.4227E+00
  0.4067E+00
  0.3914E+00
  0.3769E+00
  0.3632E+00
  0.3503E+00
  0.3381E+00
  0.3267E+00
  0.3163E+00
  0.3067E+00
  0.2982E+00
  0.2916E+00
  0.2874E+00
  0.2873E+00
  0.2892E+00
  0.2937E+00
  0.2993E+00
  0.3053E+00
  0.3124E+00
  0.3217E+00
  0.3348E+00
  0.3521E+00
  0.3724E+00
  0.3922E+00
  0.4057E+00
  0.4068E+00
  0.4029E+00
  0.3949E+00
  0.3932E+00
  0.3971E+00
  0.4097E+00
  0.4250E+00
  0.4409E+00
  0.4569E+00
  0.4859E+00
  0.5870E+00
  0.8057E+00
  0.7575E+00
  0.7575E+00
  0.7575E+00
  0.7575E+00
  0.7572E+00
  0.7563E+00
  0.7538E+00
  0.7481E+00
  0.7375E+00
  0.7213E+00
  0.7005E+00
  0.6771E+00
  0.6527E+00
  0.6283E+00
  0.6042E+00
  0.5807E+00
  0.5579E+00
  0.5359E+00
  0.5146E+00
  0.4943E+00
  0.4748E+00
  0.4562E+00
  0.4384E+00
  0.4215E+00
  0.4055E+00
  0.3902E+00
  0.3757E+00
  0.3620E+00
  0.3490E+00
  0.3368E+00
  0.3254E+00
  0.3149E+00
  0.3053E+00
  0.2968E+00
  0.2901E+00
  0.2858E+00
  0.2855E+00
  0.2874E+00
  0.2918E+00
  0.2977E+00
  0.3047E+00
  0.3137E+00
  0.3264E+00
  0.3438E+00
  0.3655E+00
  0.3881E+00
  0.4076E+00
  0.4165E+00
  0.4155E+00
  0.4083E+00
  0.3988E+00
  0.3972E+00
  0.4019E+00
  0.4145E+00
  0.4294E+00
  0.4450E+00
  0.4611E+00
  0.4859E+00
  0.5611E+00
  0.7964E+00
  0.7552E+00
  0.7552E+00
  0.7552E+00
  0.7551E+00
  0.7549E+00
  0.7540E+00
  0.7516E+00
  0.7460E+00
  0.7356E+00
  0.7196E+00
  0.6989E+00
  0.6756E+00
  0.6513E+00
  0.6269E+00
  0.6028E+00
  0.5793E+00
  0.5565E+00
  0.5344E+00
  0.5132E+00
  0.4928E+00
  0.4733E+00
  0.4547E+00
  0.4369E+00
  0.4200E+00
  0.4040E+00
  0.3887E+00
  0.3742E+00
  0.3604E+00
  0.3474E+00
  0.3352E+00
  0.3238E+00
  0.3133E+00
  0.3036E+00
  0.2951E+00
  0.2882E+00
  0.2836E+00
  0.2833E+00
  0.2851E+00
  0.2897E+00
  0.2959E+00
  0.3048E+00
  0.3177E+00
  0.3362E+00
  0.3594E+00
  0.3840E+00
  0.4059E+00
  0.4226E+00
  0.4265E+00
  0.4236E+00
  0.4132E+00
  0.4027E+00
  0.4018E+00
  0.4073E+00
  0.4199E+00
  0.4347E+00
  0.4499E+00
  0.4656E+00
  0.4878E+00
  0.5418E+00
  0.7576E+00
  0.7523E+00
  0.7523E+00
  0.7523E+00
  0.7523E+00
  0.7520E+00
  0.7512E+00
  0.7489E+00
  0.7435E+00
  0.7333E+00
  0.7175E+00
  0.6970E+00
  0.6738E+00
  0.6495E+00
  0.6251E+00
  0.6010E+00
  0.5776E+00
  0.5547E+00
  0.5327E+00
  0.5114E+00
  0.4911E+00
  0.4715E+00
  0.4529E+00
  0.4352E+00
  0.4182E+00
  0.4021E+00
  0.3868E+00
  0.3723E+00
  0.3585E+00
  0.3455E+00
  0.3333E+00
  0.3218E+00
  0.3112E+00
  0.3015E+00
  0.2929E+00
  0.2859E+00
  0.2810E+00
  0.2806E+00
  0.2824E+00
  0.2870E+00
  0.2949E+00
  0.3079E+00
  0.3274E+00
  0.3509E+00
  0.3770E+00
  0.4020E+00
  0.4223E+00
  0.4349E+00
  0.4356E+00
  0.4296E+00
  0.4164E+00
  0.4062E+00
  0.4062E+00
  0.4131E+00
  0.4258E+00
  0.4406E+00
  0.4550E+00
  0.4702E+00
  0.4911E+00
  0.5246E+00
  0.6749E+00
  0.7490E+00
  0.7490E+00
  0.7490E+00
  0.7489E+00
  0.7487E+00
  0.7479E+00
  0.7457E+00
  0.7405E+00
  0.7305E+00
  0.7150E+00
  0.6948E+00
  0.6717E+00
  0.6474E+00
  0.6230E+00
  0.5990E+00
  0.5755E+00
  0.5527E+00
  0.5306E+00
  0.5093E+00
  0.4890E+00
  0.4694E+00
  0.4508E+00
  0.4330E+00
  0.4161E+00
  0.3999E+00
  0.3846E+00
  0.3700E+00
  0.3562E+00
  0.3432E+00
  0.3309E+00
  0.3193E+00
  0.3087E+00
  0.2989E+00
  0.2902E+00
  0.2829E+00
  0.2777E+00
  0.2773E+00
  0.2791E+00
  0.2846E+00
  0.2963E+00
  0.3160E+00
  0.3421E+00
  0.3693E+00
  0.3955E+00
  0.4178E+00
  0.4357E+00
  0.4438E+00
  0.4423E+00
  0.4319E+00
  0.4167E+00
  0.4088E+00
  0.4102E+00
  0.4186E+00
  0.4318E+00
  0.4462E+00
  0.4597E+00
  0.4745E+00
  0.4926E+00
  0.5073E+00
  0.5906E+00
  0.7451E+00
  0.7451E+00
  0.7451E+00
  0.7450E+00
  0.7448E+00
  0.7441E+00
  0.7420E+00
  0.7370E+00
  0.7273E+00
  0.7121E+00
  0.6921E+00
  0.6692E+00
  0.6450E+00
  0.6206E+00
  0.5965E+00
  0.5730E+00
  0.5502E+00
  0.5281E+00
  0.5069E+00
  0.4864E+00
  0.4669E+00
  0.4482E+00
  0.4304E+00
  0.4134E+00
  0.3972E+00
  0.3819E+00
  0.3672E+00
  0.3534E+00
  0.3402E+00
  0.3278E+00
  0.3162E+00
  0.3054E+00
  0.2955E+00
  0.2866E+00
  0.2791E+00
  0.2735E+00
  0.2732E+00
  0.2756E+00
  0.2845E+00
  0.3033E+00
  0.3316E+00
  0.3628E+00
  0.3899E+00
  0.4127E+00
  0.4312E+00
  0.4458E+00
  0.4491E+00
  0.4445E+00
  0.4305E+00
  0.4149E+00
  0.4107E+00
  0.4135E+00
  0.4237E+00
  0.4376E+00
  0.4512E+00
  0.4639E+00
  0.4780E+00
  0.4913E+00
  0.4860E+00
  0.5057E+00
  0.7405E+00
  0.7405E+00
  0.7405E+00
  0.7405E+00
  0.7403E+00
  0.7396E+00
  0.7376E+00
  0.7329E+00
  0.7236E+00
  0.7087E+00
  0.6890E+00
  0.6662E+00
  0.6420E+00
  0.6177E+00
  0.5936E+00
  0.5701E+00
  0.5472E+00
  0.5251E+00
  0.5038E+00
  0.4834E+00
  0.4638E+00
  0.4450E+00
  0.4272E+00
  0.4101E+00
  0.3939E+00
  0.3784E+00
  0.3637E+00
  0.3497E+00
  0.3365E+00
  0.3240E+00
  0.3122E+00
  0.3013E+00
  0.2912E+00
  0.2819E+00
  0.2743E+00
  0.2684E+00
  0.2687E+00
  0.2740E+00
  0.2900E+00
  0.3184E+00
  0.3529E+00
  0.3843E+00
  0.4077E+00
  0.4259E+00
  0.4415E+00
  0.4517E+00
  0.4511E+00
  0.4422E+00
  0.4250E+00
  0.4118E+00
  0.4112E+00
  0.4166E+00
  0.4287E+00
  0.4428E+00
  0.4550E+00
  0.4670E+00
  0.4790E+00
  0.4844E+00
  0.4573E+00
  0.4267E+00
  0.7352E+00
  0.7352E+00
  0.7352E+00
  0.7351E+00
  0.7350E+00
  0.7343E+00
  0.7325E+00
  0.7280E+00
  0.7191E+00
  0.7046E+00
  0.6852E+00
  0.6626E+00
  0.6385E+00
  0.6141E+00
  0.5901E+00
  0.5665E+00
  0.5436E+00
  0.5215E+00
  0.5001E+00
  0.4796E+00
  0.4599E+00
  0.4411E+00
  0.4232E+00
  0.4060E+00
  0.3897E+00
  0.3741E+00
  0.3593E+00
  0.3451E+00
  0.3318E+00
  0.3191E+00
  0.3072E+00
  0.2960E+00
  0.2857E+00
  0.2762E+00
  0.2677E+00
  0.2636E+00
  0.2659E+00
  0.2775E+00
  0.3041E+00
  0.3406E+00
  0.3767E+00
  0.4029E+00
  0.4205E+00
  0.4351E+00
  0.4487E+00
  0.4532E+00
  0.4497E+00
  0.4346E+00
  0.4165E+00
  0.4095E+00
  0.4113E+00
  0.4201E+00
  0.4338E+00
  0.4470E+00
  0.4578E+00
  0.4691E+00
  0.4776E+00
  0.4725E+00
  0.4171E+00
  0.3562E+00
  0.7288E+00
  0.7288E+00
  0.7288E+00
  0.7287E+00
  0.7286E+00
  0.7280E+00
  0.7263E+00
  0.7221E+00
  0.7136E+00
  0.6996E+00
  0.6805E+00
  0.6581E+00
  0.6341E+00
  0.6098E+00
  0.5857E+00
  0.5621E+00
  0.5392E+00
  0.5169E+00
  0.4955E+00
  0.4749E+00
  0.4551E+00
  0.4362E+00
  0.4181E+00
  0.4009E+00
  0.3844E+00
  0.3687E+00
  0.3537E+00
  0.3394E+00
  0.3259E+00
  0.3130E+00
  0.3009E+00
  0.2896E+00
  0.2789E+00
  0.2692E+00
  0.2599E+00
  0.2602E+00
  0.2684E+00
  0.2913E+00
  0.3273E+00
  0.3672E+00
  0.3978E+00
  0.4160E+00
  0.4292E+00
  0.4418E+00
  0.4519E+00
  0.4522E+00
  0.4429E+00
  0.4235E+00
  0.4090E+00
  0.4080E+00
  0.4126E+00
  0.4247E+00
  0.4388E+00
  0.4500E+00
  0.4598E+00
  0.4694E+00
  0.4721E+00
  0.4501E+00
  0.3692E+00
  0.3013E+00
  0.7211E+00
  0.7211E+00
  0.7211E+00
  0.7210E+00
  0.7209E+00
  0.7204E+00
  0.7188E+00
  0.7149E+00
  0.7068E+00
  0.6934E+00
  0.6747E+00
  0.6526E+00
  0.6287E+00
  0.6044E+00
  0.5803E+00
  0.5566E+00
  0.5336E+00
  0.5113E+00
  0.4898E+00
  0.4691E+00
  0.4492E+00
  0.4302E+00
  0.4119E+00
  0.3945E+00
  0.3779E+00
  0.3621E+00
  0.3470E+00
  0.3326E+00
  0.3188E+00
  0.3059E+00
  0.2936E+00
  0.2819E+00
  0.2713E+00
  0.2590E+00
  0.2575E+00
  0.2620E+00
  0.2811E+00
  0.3144E+00
  0.3551E+00
  0.3914E+00
  0.4128E+00
  0.4256E+00
  0.4362E+00
  0.4471E+00
  0.4518E+00
  0.4479E+00
  0.4309E+00
  0.4116E+00
  0.4053E+00
  0.4074E+00
  0.4167E+00
  0.4306E+00
  0.4428E+00
  0.4519E+00
  0.4608E+00
  0.4672E+00
  0.4616E+00
  0.4112E+00
  0.3230E+00
  0.2603E+00
  0.7119E+00
  0.7119E+00
  0.7119E+00
  0.7119E+00
  0.7117E+00
  0.7113E+00
  0.7099E+00
  0.7063E+00
  0.6987E+00
  0.6858E+00
  0.6677E+00
  0.6458E+00
  0.6221E+00
  0.5978E+00
  0.5736E+00
  0.5500E+00
  0.5269E+00
  0.5045E+00
  0.4829E+00
  0.4621E+00
  0.4421E+00
  0.4230E+00
  0.4046E+00
  0.3871E+00
  0.3704E+00
  0.3544E+00
  0.3392E+00
  0.3246E+00
  0.3108E+00
  0.2977E+00
  0.2852E+00
  0.2736E+00
  0.2604E+00
  0.2565E+00
  0.2593E+00
  0.2740E+00
  0.3046E+00
  0.3441E+00
  0.3818E+00
  0.4065E+00
  0.4202E+00
  0.4310E+00
  0.4413E+00
  0.4494E+00
  0.4489E+00
  0.4372E+00
  0.4166E+00
  0.4041E+00
  0.4042E+00
  0.4101E+00
  0.4231E+00
  0.4361E+00
  0.4454E+00
  0.4530E+00
  0.4605E+00
  0.4613E+00
  0.4389E+00
  0.3632E+00
  0.2824E+00
  0.2317E+00
  0.7016E+00
  0.7016E+00
  0.7016E+00
  0.7015E+00
  0.7014E+00
  0.7010E+00
  0.6998E+00
  0.6965E+00
  0.6894E+00
  0.6772E+00
  0.6596E+00
  0.6381E+00
  0.6145E+00
  0.5903E+00
  0.5662E+00
  0.5425E+00
  0.5194E+00
  0.4969E+00
  0.4753E+00
  0.4544E+00
  0.4343E+00
  0.4151E+00
  0.3967E+00
  0.3791E+00
  0.3622E+00
  0.3462E+00
  0.3309E+00
  0.3162E+00
  0.3022E+00
  0.2890E+00
  0.2763E+00
  0.2628E+00
  0.2573E+00
  0.2592E+00
  0.2706E+00
  0.2973E+00
  0.3354E+00
  0.3760E+00
  0.4036E+00
  0.4158E+00
  0.4245E+00
  0.4345E+00
  0.4443E+00
  0.4473E+00
  0.4405E+00
  0.4211E+00
  0.4047E+00
  0.4024E+00
  0.4056E+00
  0.4168E+00
  0.4299E+00
  0.4398E+00
  0.4467E+00
  0.4534E+00
  0.4574E+00
  0.4494E+00
  0.3980E+00
  0.3167E+00
  0.2501E+00
  0.2144E+00
  0.6911E+00
  0.6911E+00
  0.6911E+00
  0.6910E+00
  0.6910E+00
  0.6906E+00
  0.6895E+00
  0.6865E+00
  0.6800E+00
  0.6684E+00
  0.6514E+00
  0.6304E+00
  0.6071E+00
  0.5830E+00
  0.5590E+00
  0.5352E+00
  0.5121E+00
  0.4896E+00
  0.4678E+00
  0.4468E+00
  0.4266E+00
  0.4072E+00
  0.3887E+00
  0.3710E+00
  0.3541E+00
  0.3379E+00
  0.3225E+00
  0.3079E+00
  0.2940E+00
  0.2802E+00
  0.2674E+00
  0.2604E+00
  0.2612E+00
  0.2711E+00
  0.2930E+00
  0.3264E+00
  0.3664E+00
  0.4001E+00
  0.4172E+00
  0.4248E+00
  0.4320E+00
  0.4396E+00
  0.4434E+00
  0.4395E+00
  0.4234E+00
  0.4068E+00
  0.4023E+00
  0.4038E+00
  0.4122E+00
  0.4245E+00
  0.4345E+00
  0.4411E+00
  0.4470E+00
  0.4524E+00
  0.4508E+00
  0.4213E+00
  0.3492E+00
  0.2764E+00
  0.2267E+00
  0.2055E+00
  0.6826E+00
  0.6826E+00
  0.6826E+00
  0.6826E+00
  0.6825E+00
  0.6822E+00
  0.6813E+00
  0.6787E+00
  0.6729E+00
  0.6621E+00
  0.6460E+00
  0.6254E+00
  0.6023E+00
  0.5782E+00
  0.5540E+00
  0.5302E+00
  0.5068E+00
  0.4841E+00
  0.4621E+00
  0.4409E+00
  0.4205E+00
  0.4009E+00
  0.3824E+00
  0.3646E+00
  0.3477E+00
  0.3314E+00
  0.3157E+00
  0.3005E+00
  0.2867E+00
  0.2750E+00
  0.2666E+00
  0.2663E+00
  0.2756E+00
  0.2981E+00
  0.3266E+00
  0.3609E+00
  0.3927E+00
  0.4121E+00
  0.4219E+00
  0.4304E+00
  0.4392E+00
  0.4411E+00
  0.4382E+00
  0.4242E+00
  0.4082E+00
  0.4029E+00
  0.4038E+00
  0.4104E+00
  0.4210E+00
  0.4302E+00
  0.4360E+00
  0.4411E+00
  0.4466E+00
  0.4482E+00
  0.4334E+00
  0.3762E+00
  0.3030E+00
  0.2446E+00
  0.2120E+00
  0.2018E+00
  0.6824E+00
  0.6824E+00
  0.6824E+00
  0.6824E+00
  0.6823E+00
  0.6821E+00
  0.6812E+00
  0.6788E+00
  0.6732E+00
  0.6628E+00
  0.6470E+00
  0.6265E+00
  0.6034E+00
  0.5791E+00
  0.5546E+00
  0.5305E+00
  0.5069E+00
  0.4840E+00
  0.4619E+00
  0.4404E+00
  0.4198E+00
  0.4000E+00
  0.3809E+00
  0.3626E+00
  0.3452E+00
  0.3288E+00
  0.3134E+00
  0.2993E+00
  0.2863E+00
  0.2762E+00
  0.2755E+00
  0.2840E+00
  0.3061E+00
  0.3359E+00
  0.3665E+00
  0.3926E+00
  0.4089E+00
  0.4177E+00
  0.4254E+00
  0.4336E+00
  0.4396E+00
  0.4384E+00
  0.4264E+00
  0.4102E+00
  0.4042E+00
  0.4048E+00
  0.4106E+00
  0.4198E+00
  0.4276E+00
  0.4323E+00
  0.4359E+00
  0.4409E+00
  0.4442E+00
  0.4373E+00
  0.3959E+00
  0.3273E+00
  0.2643E+00
  0.2224E+00
  0.2045E+00
  0.2005E+00
  0.6849E+00
  0.6849E+00
  0.6849E+00
  0.6849E+00
  0.6849E+00
  0.6846E+00
  0.6839E+00
  0.6817E+00
  0.6766E+00
  0.6668E+00
  0.6514E+00
  0.6312E+00
  0.6081E+00
  0.5836E+00
  0.5588E+00
  0.5342E+00
  0.5101E+00
  0.4867E+00
  0.4641E+00
  0.4422E+00
  0.4212E+00
  0.4010E+00
  0.3818E+00
  0.3634E+00
  0.3459E+00
  0.3294E+00
  0.3141E+00
  0.3004E+00
  0.2895E+00
  0.2883E+00
  0.2965E+00
  0.3172E+00
  0.3453E+00
  0.3764E+00
  0.4001E+00
  0.4121E+00
  0.4178E+00
  0.4242E+00
  0.4327E+00
  0.4377E+00
  0.4371E+00
  0.4278E+00
  0.4130E+00
  0.4063E+00
  0.4064E+00
  0.4115E+00
  0.4198E+00
  0.4267E+00
  0.4303E+00
  0.4324E+00
  0.4358E+00
  0.4397E+00
  0.4368E+00
  0.4082E+00
  0.3473E+00
  0.2834E+00
  0.2351E+00
  0.2093E+00
  0.2013E+00
  0.2001E+00
  0.6874E+00
  0.6874E+00
  0.6874E+00
  0.6874E+00
  0.6874E+00
  0.6872E+00
  0.6865E+00
  0.6846E+00
  0.6800E+00
  0.6708E+00
  0.6560E+00
  0.6363E+00
  0.6132E+00
  0.5887E+00
  0.5637E+00
  0.5389E+00
  0.5145E+00
  0.4908E+00
  0.4679E+00
  0.4457E+00
  0.4244E+00
  0.4040E+00
  0.3845E+00
  0.3659E+00
  0.3484E+00
  0.3320E+00
  0.3174E+00
  0.3061E+00
  0.3052E+00
  0.3127E+00
  0.3323E+00
  0.3575E+00
  0.3827E+00
  0.4039E+00
  0.4171E+00
  0.4220E+00
  0.4254E+00
  0.4328E+00
  0.4379E+00
  0.4376E+00
  0.4301E+00
  0.4160E+00
  0.4087E+00
  0.4084E+00
  0.4125E+00
  0.4199E+00
  0.4262E+00
  0.4293E+00
  0.4304E+00
  0.4324E+00
  0.4356E+00
  0.4348E+00
  0.4149E+00
  0.3623E+00
  0.3003E+00
  0.2485E+00
  0.2161E+00
  0.2031E+00
  0.2003E+00
  0.2000E+00
  0.6902E+00
  0.6902E+00
  0.6902E+00
  0.6902E+00
  0.6901E+00
  0.6900E+00
  0.6894E+00
  0.6877E+00
  0.6835E+00
  0.6749E+00
  0.6608E+00
  0.6414E+00
  0.6185E+00
  0.5939E+00
  0.5688E+00
  0.5438E+00
  0.5193E+00
  0.4954E+00
  0.4722E+00
  0.4498E+00
  0.4283E+00
  0.4077E+00
  0.3882E+00
  0.3698E+00
  0.3527E+00
  0.3379E+00
  0.3264E+00
  0.3253E+00
  0.3319E+00
  0.3489E+00
  0.3717E+00
  0.3934E+00
  0.4071E+00
  0.4160E+00
  0.4248E+00
  0.4303E+00
  0.4336E+00
  0.4378E+00
  0.4376E+00
  0.4319E+00
  0.4198E+00
  0.4121E+00
  0.4108E+00
  0.4136E+00
  0.4199E+00
  0.4255E+00
  0.4282E+00
  0.4290E+00
  0.4301E+00
  0.4329E+00
  0.4331E+00
  0.4189E+00
  0.3730E+00
  0.3141E+00
  0.2611E+00
  0.2241E+00
  0.2060E+00
  0.2009E+00
  0.2001E+00
  0.2000E+00
  0.6923E+00
  0.6923E+00
  0.6923E+00
  0.6923E+00
  0.6923E+00
  0.6922E+00
  0.6917E+00
  0.6902E+00
  0.6864E+00
  0.6784E+00
  0.6649E+00
  0.6460E+00
  0.6233E+00
  0.5987E+00
  0.5735E+00
  0.5484E+00
  0.5236E+00
  0.4994E+00
  0.4760E+00
  0.4534E+00
  0.4319E+00
  0.4115E+00
  0.3924E+00
  0.3748E+00
  0.3596E+00
  0.3480E+00
  0.3461E+00
  0.3518E+00
  0.3661E+00
  0.3843E+00
  0.4016E+00
  0.4144E+00
  0.4206E+00
  0.4245E+00
  0.4320E+00
  0.4390E+00
  0.4395E+00
  0.4373E+00
  0.4303E+00
  0.4199E+00
  0.4138E+00
  0.4132E+00
  0.4153E+00
  0.4202E+00
  0.4249E+00
  0.4273E+00
  0.4277E+00
  0.4283E+00
  0.4305E+00
  0.4316E+00
  0.4210E+00
  0.3810E+00
  0.3249E+00
  0.2719E+00
  0.2322E+00
  0.2097E+00
  0.2018E+00
  0.2002E+00
  0.2000E+00
  0.2000E+00
  0.6934E+00
  0.6934E+00
  0.6934E+00
  0.6934E+00
  0.6934E+00
  0.6933E+00
  0.6928E+00
  0.6915E+00
  0.6881E+00
  0.6807E+00
  0.6679E+00
  0.6495E+00
  0.6270E+00
  0.6023E+00
  0.5769E+00
  0.5515E+00
  0.5266E+00
  0.5023E+00
  0.4788E+00
  0.4563E+00
  0.4352E+00
  0.4154E+00
  0.3974E+00
  0.3818E+00
  0.3700E+00
  0.3666E+00
  0.3709E+00
  0.3822E+00
  0.3966E+00
  0.4096E+00
  0.4191E+00
  0.4268E+00
  0.4313E+00
  0.4345E+00
  0.4394E+00
  0.4411E+00
  0.4384E+00
  0.4278E+00
  0.4162E+00
  0.4121E+00
  0.4132E+00
  0.4163E+00
  0.4207E+00
  0.4248E+00
  0.4267E+00
  0.4269E+00
  0.4270E+00
  0.4286E+00
  0.4298E+00
  0.4214E+00
  0.3861E+00
  0.3332E+00
  0.2809E+00
  0.2396E+00
  0.2139E+00
  0.2031E+00
  0.2004E+00
  0.2000E+00
  0.2000E+00
  0.2000E+00
  0.6942E+00
  0.6942E+00
  0.6942E+00
  0.6942E+00
  0.6942E+00
  0.6941E+00
  0.6937E+00
  0.6926E+00
  0.6895E+00
  0.6827E+00
  0.6705E+00
  0.6526E+00
  0.6303E+00
  0.6056E+00
  0.5800E+00
  0.5545E+00
  0.5294E+00
  0.5051E+00
  0.4818E+00
  0.4598E+00
  0.4393E+00
  0.4209E+00
  0.4048E+00
  0.3926E+00
  0.3869E+00
  0.3898E+00
  0.3978E+00
  0.4090E+00
  0.4193E+00
  0.4266E+00
  0.4318E+00
  0.4370E+00
  0.4414E+00
  0.4443E+00
  0.4433E+00
  0.4385E+00
  0.4263E+00
  0.4129E+00
  0.4087E+00
  0.4108E+00
  0.4152E+00
  0.4207E+00
  0.4248E+00
  0.4264E+00
  0.4263E+00
  0.4262E+00
  0.4274E+00
  0.4285E+00
  0.4211E+00
  0.3886E+00
  0.3388E+00
  0.2879E+00
  0.2460E+00
  0.2181E+00
  0.2048E+00
  0.2008E+00
  0.2001E+00
  0.2000E+00
  0.2000E+00
  0.2000E+00
  0.6953E+00
  0.6953E+00
  0.6953E+00
  0.6953E+00
  0.6952E+00
  0.6952E+00
  0.6949E+00
  0.6938E+00
  0.6911E+00
  0.6848E+00
  0.6733E+00
  0.6560E+00
  0.6340E+00
  0.6094E+00
  0.5838E+00
  0.5582E+00
  0.5331E+00
  0.5091E+00
  0.4863E+00
  0.4651E+00
  0.4459E+00
  0.4293E+00
  0.4162E+00
  0.4083E+00
  0.4091E+00
  0.4147E+00
  0.4227E+00
  0.4302E+00
  0.4358E+00
  0.4399E+00
  0.4436E+00
  0.4475E+00
  0.4495E+00
  0.4471E+00
  0.4395E+00
  0.4243E+00
  0.4101E+00
  0.4062E+00
  0.4084E+00
  0.4136E+00
  0.4201E+00
  0.4248E+00
  0.4263E+00
  0.4261E+00
  0.4258E+00
  0.4266E+00
  0.4275E+00
  0.4208E+00
  0.3901E+00
  0.3423E+00
  0.2929E+00
  0.2512E+00
  0.2219E+00
  0.2066E+00
  0.2013E+00
  0.2002E+00
  0.2000E+00
  0.2000E+00
  0.2000E+00
  0.2000E+00
  0.6977E+00
  0.6977E+00
  0.6977E+00
  0.6977E+00
  0.6977E+00
  0.6976E+00
  0.6973E+00
  0.6964E+00
  0.6940E+00
  0.6881E+00
  0.6772E+00
  0.6603E+00
  0.6386E+00
  0.6141E+00
  0.5884E+00
  0.5629E+00
  0.5381E+00
  0.5146E+00
  0.4928E+00
  0.4730E+00
  0.4557E+00
  0.4418E+00
  0.4323E+00
  0.4297E+00
  0.4328E+00
  0.4382E+00
  0.4431E+00
  0.4468E+00
  0.4498E+00
  0.4523E+00
  0.4533E+00
  0.4522E+00
  0.4491E+00
  0.4404E+00
  0.4235E+00
  0.4082E+00
  0.4042E+00
  0.4064E+00
  0.4125E+00
  0.4199E+00
  0.4249E+00
  0.4267E+00
  0.4263E+00
  0.4258E+00
  0.4263E+00
  0.4268E+00
  0.4203E+00
  0.3904E+00
  0.3441E+00
  0.2962E+00
  0.2551E+00
  0.2252E+00
  0.2083E+00
  0.2018E+00
  0.2003E+00
  0.2000E+00
  0.2000E+00
  0.2000E+00
  0.2000E+00
  0.2000E+00
  0.7011E+00
  0.7011E+00
  0.7011E+00
  0.7011E+00
  0.7011E+00
  0.7011E+00
  0.7008E+00
  0.7000E+00
  0.6977E+00
  0.6923E+00
  0.6818E+00
  0.6653E+00
  0.6437E+00
  0.6190E+00
  0.5933E+00
  0.5680E+00
  0.5439E+00
  0.5214E+00
  0.5010E+00
  0.4833E+00
  0.4687E+00
  0.4579E+00
  0.4516E+00
  0.4523E+00
  0.4550E+00
  0.4578E+00
  0.4594E+00
  0.4596E+00
  0.4587E+00
  0.4563E+00
  0.4533E+00
  0.4482E+00
  0.4371E+00
  0.4212E+00
  0.4068E+00
  0.4029E+00
  0.4048E+00
  0.4116E+00
  0.4198E+00
  0.4255E+00
  0.4273E+00
  0.4269E+00
  0.4262E+00
  0.4266E+00
  0.4268E+00
  0.4201E+00
  0.3903E+00
  0.3443E+00
  0.2977E+00
  0.2577E+00
  0.2278E+00
  0.2099E+00
  0.2024E+00
  0.2004E+00
  0.2001E+00
  0.2000E+00
  0.2000E+00
  0.2000E+00
  0.2000E+00
  0.2000E+00
  0.7031E+00
  0.7031E+00
  0.7031E+00
  0.7030E+00
  0.7030E+00
  0.7030E+00
  0.7028E+00
  0.7021E+00
  0.7000E+00
  0.6949E+00
  0.6850E+00
  0.6690E+00
  0.6478E+00
  0.6235E+00
  0.5983E+00
  0.5738E+00
  0.5508E+00
  0.5298E+00
  0.5116E+00
  0.4964E+00
  0.4844E+00
  0.4757E+00
  0.4714E+00
  0.4717E+00
  0.4711E+00
  0.4687E+00
  0.4654E+00
  0.4616E+00
  0.4577E+00
  0.4522E+00
  0.4434E+00
  0.4311E+00
  0.4164E+00
  0.4049E+00
  0.4022E+00
  0.4038E+00
  0.4106E+00
  0.4198E+00
  0.4262E+00
  0.4282E+00
  0.4277E+00
  0.4270E+00
  0.4274E+00
  0.4275E+00
  0.4204E+00
  0.3903E+00
  0.3443E+00
  0.2978E+00
  0.2588E+00
  0.2295E+00
  0.2112E+00
  0.2030E+00
  0.2005E+00
  0.2001E+00
  0.2000E+00
  0.2000E+00
  0.2000E+00
  0.2000E+00
  0.2000E+00
  0.2000E+00
  0.7028E+00
  0.7028E+00
  0.7028E+00
  0.7028E+00
  0.7028E+00
  0.7028E+00
  0.7026E+00
  0.7019E+00
  0.6999E+00
  0.6949E+00
  0.6852E+00
  0.6696E+00
  0.6490E+00
  0.6256E+00
  0.6016E+00
  0.5785E+00
  0.5574E+00
  0.5388E+00
  0.5227E+00
  0.5091E+00
  0.4978E+00
  0.4887E+00
  0.4824E+00
  0.4774E+00
  0.4728E+00
  0.4681E+00
  0.4629E+00
  0.4563E+00
  0.4475E+00
  0.4365E+00
  0.4241E+00
  0.4120E+00
  0.4039E+00
  0.4025E+00
  0.4038E+00
  0.4103E+00
  0.4198E+00
  0.4267E+00
  0.4294E+00
  0.4290E+00
  0.4283E+00
  0.4286E+00
  0.4284E+00
  0.4208E+00
  0.3904E+00
  0.3444E+00
  0.2978E+00
  0.2588E+00
  0.2302E+00
  0.2121E+00
  0.2035E+00
  0.2007E+00
  0.2001E+00
  0.2000E+00
  0.2000E+00
  0.2000E+00
  0.2000E+00
  0.2000E+00
  0.2000E+00
  0.2000E+00
  0.6991E+00
  0.6991E+00
  0.6991E+00
  0.6991E+00
  0.6991E+00
  0.6990E+00
  0.6988E+00
  0.6981E+00
  0.6962E+00
  0.6914E+00
  0.6819E+00
  0.6668E+00
  0.6466E+00
  0.6238E+00
  0.6005E+00
  0.5783E+00
  0.5580E+00
  0.5400E+00
  0.5243E+00
  0.5106E+00
  0.4989E+00
  0.4891E+00
  0.4812E+00
  0.4743E+00
  0.4673E+00
  0.4593E+00
  0.4505E+00
  0.4407E+00
  0.4296E+00
  0.4184E+00
  0.4097E+00
  0.4055E+00
  0.4041E+00
  0.4056E+00
  0.4122E+00
  0.4211E+00
  0.4276E+00
  0.4304E+00
  0.4304E+00
  0.4302E+00
  0.4305E+00
  0.4298E+00
  0.4212E+00
  0.3901E+00
  0.3441E+00
  0.2977E+00
  0.2588E+00
  0.2302E+00
  0.2124E+00
  0.2038E+00
  0.2008E+00
  0.2001E+00
  0.2000E+00
  0.2000E+00
  0.2000E+00
  0.2000E+00
  0.2000E+00
  0.2000E+00
  0.2000E+00
  0.2000E+00
  0.6800E+00
  0.6800E+00
  0.6800E+00
  0.6800E+00
  0.6800E+00
  0.6799E+00
  0.6798E+00
  0.6791E+00
  0.6772E+00
  0.6725E+00
  0.6635E+00
  0.6492E+00
  0.6307E+00
  0.6099E+00
  0.5888E+00
  0.5687E+00
  0.5503E+00
  0.5335E+00
  0.5181E+00
  0.5041E+00
  0.4917E+00
  0.4808E+00
  0.4708E+00
  0.4616E+00
  0.4527E+00
  0.4434E+00
  0.4337E+00
  0.4239E+00
  0.4161E+00
  0.4112E+00
  0.4086E+00
  0.4076E+00
  0.4102E+00
  0.4167E+00
  0.4245E+00
  0.4302E+00
  0.4323E+00
  0.4324E+00
  0.4324E+00
  0.4329E+00
  0.4315E+00
  0.4215E+00
  0.3887E+00
  0.3423E+00
  0.2962E+00
  0.2577E+00
  0.2295E+00
  0.2121E+00
  0.2038E+00
  0.2009E+00
  0.2001E+00
  0.2000E+00
  0.2000E+00
  0.2000E+00
  0.2000E+00
  0.2000E+00
  0.2000E+00
  0.2000E+00
  0.2000E+00
  0.2000E+00
  0.6464E+00
  0.6464E+00
  0.6464E+00
  0.6464E+00
  0.6464E+00
  0.6463E+00
  0.6461E+00
  0.6455E+00
  0.6435E+00
  0.6390E+00
  0.6305E+00
  0.6175E+00
  0.6009E+00
  0.5826E+00
  0.5645E+00
  0.5472E+00
  0.5310E+00
  0.5158E+00
  0.5015E+00
  0.4884E+00
  0.4764E+00
  0.4656E+00
  0.4555E+00
  0.4463E+00
  0.4377E+00
  0.4300E+00
  0.4238E+00
  0.4190E+00
  0.4153E+00
  0.4130E+00
  0.4133E+00
  0.4167E+00
  0.4231E+00
  0.4299E+00
  0.4345E+00
  0.4361E+00
  0.4360E+00
  0.4359E+00
  0.4357E+00
  0.4332E+00
  0.4211E+00
  0.3859E+00
  0.3388E+00
  0.2929E+00
  0.2551E+00
  0.2278E+00
  0.2112E+00
  0.2035E+00
  0.2008E+00
  0.2001E+00
  0.2000E+00
  0.2000E+00
  0.2000E+00
  0.2000E+00
  0.2000E+00
  0.2000E+00
  0.2000E+00
  0.2000E+00
  0.2000E+00
  0.2000E+00
  0.6144E+00
  0.6144E+00
  0.6144E+00
  0.6144E+00
  0.6144E+00
  0.6144E+00
  0.6142E+00
  0.6135E+00
  0.6116E+00
  0.6073E+00
  0.5993E+00
  0.5875E+00
  0.5728E+00
  0.5573E+00
  0.5420E+00
  0.5270E+00
  0.5127E+00
  0.4991E+00
  0.4864E+00
  0.4748E+00
  0.4644E+00
  0.4551E+00
  0.4469E+00
  0.4399E+00
  0.4341E+00
  0.4289E+00
  0.4245E+00
  0.4215E+00
  0.4205E+00
  0.4216E+00
  0.4253E+00
  0.4307E+00
  0.4362E+00
  0.4398E+00
  0.4411E+00
  0.4411E+00
  0.4409E+00
  0.4397E+00
  0.4350E+00
  0.4188E+00
  0.3809E+00
  0.3332E+00
  0.2879E+00
  0.2512E+00
  0.2252E+00
  0.2099E+00
  0.2030E+00
  0.2007E+00
  0.2001E+00
  0.2000E+00
  0.2000E+00
  0.2000E+00
  0.2000E+00
  0.2000E+00
  0.2000E+00
  0.2000E+00
  0.2000E+00
  0.2000E+00
  0.2000E+00
  0.2000E+00
  0.5962E+00
  0.5962E+00
  0.5962E+00
  0.5962E+00
  0.5962E+00
  0.5962E+00
  0.5959E+00
  0.5952E+00
  0.5934E+00
  0.5892E+00
  0.5819E+00
  0.5714E+00
  0.5588E+00
  0.5455E+00
  0.5321E+00
  0.5190E+00
  0.5063E+00
  0.4943E+00
  0.4831E+00
  0.4728E+00
  0.4634E+00
  0.4551E+00
  0.4479E+00
  0.4419E+00
  0.4371E+00
  0.4336E+00
  0.4315E+00
  0.4310E+00
  0.4322E+00
  0.4353E+00
  0.4393E+00
  0.4430E+00
  0.4454E+00
  0.4467E+00
  0.4470E+00
  0.4467E+00
  0.4441E+00
  0.4367E+00
  0.4148E+00
  0.3730E+00
  0.3249E+00
  0.2809E+00
  0.2460E+00
  0.2219E+00
  0.2083E+00
  0.2024E+00
  0.2005E+00
  0.2001E+00
  0.2000E+00
  0.2000E+00
  0.2000E+00
  0.2000E+00
  0.2000E+00
  0.2000E+00
  0.2000E+00
  0.2000E+00
  0.2000E+00
  0.2000E+00
  0.2000E+00
  0.2000E+00
  0.5933E+00
  0.5933E+00
  0.5933E+00
  0.5933E+00
  0.5933E+00
  0.5932E+00
  0.5930E+00
  0.5924E+00
  0.5906E+00
  0.5868E+00
  0.5800E+00
  0.5702E+00
  0.5583E+00
  0.5456E+00
  0.5328E+00
  0.5202E+00
  0.5081E+00
  0.4967E+00
  0.4863E+00
  0.4769E+00
  0.4687E+00
  0.4616E+00
  0.4557E+00
  0.4508E+00
  0.4469E+00
  0.4445E+00
  0.4436E+00
  0.4442E+00
  0.4460E+00
  0.4483E+00
  0.4504E+00
  0.4520E+00
  0.4531E+00
  0.4534E+00
  0.4523E+00
  0.4482E+00
  0.4373E+00
  0.4081E+00
  0.3623E+00
  0.3141E+00
  0.2719E+00
  0.2396E+00
  0.2181E+00
  0.2066E+00
  0.2018E+00
  0.2004E+00
  0.2001E+00
  0.2000E+00
  0.2000E+00
  0.2000E+00
  0.2000E+00
  0.2000E+00
  0.2000E+00
  0.2000E+00
  0.2000E+00
  0.2000E+00
  0.2000E+00
  0.2000E+00
  0.2000E+00
  0.2000E+00
  0.5935E+00
  0.5935E+00
  0.5935E+00
  0.5935E+00