# vtk DataFile Version 3.0
vtk output
ASCII
DATASET RECTILINEAR_GRID
DIMENSIONS          61          61 1
X_COORDINATES    61 double
  0.0000E+00
  0.1667E+00
  0.3333E+00
  0.5000E+00
  0.6667E+00
  0.8333E+00
  0.1000E+01
  0.1167E+01
  0.1333E+01
  0.1500E+01
  0.1667E+01
  0.1833E+01
  0.2000E+01
  0.2167E+01
  0.2333E+01
  0.2500E+01
  0.2667E+01
  0.2833E+01
  0.3000E+01
  0.3167E+01
  0.3333E+01
  0.3500E+01
  0.3667E+01
  0.3833E+01
  0.4000E+01
  0.4167E+01
  0.4333E+01
  0.4500E+01
  0.4667E+01
  0.4833E+01
  0.5000E+01
  0.5167E+01
  0.5333E+01
  0.5500E+01
  0.5667E+01
  0.5833E+01
  0.6000E+01
  0.6167E+01
  0.6333E+01
  0.6500E+01
  0.6667E+01
  0.6833E+01
  0.7000E+01
  0.7167E+01
  0.7333E+01
  0.7500E+01
  0.7667E+01
  0.7833E+01
  0.8000E+01
  0.8167E+01
  0.8333E+01
  0.8500E+01
  0.8667E+01
  0.8833E+01
  0.9000E+01
  0.9167E+01
  0.9333E+01
  0.9500E+01
  0.9667E+01
  0.9833E+01
  0.1000E+02
Y_COORDINATES    61 double
  0.0000E+00
  0.1667E+00
  0.3333E+00
  0.5000E+00
  0.6667E+00
  0.8333E+00
  0.1000E+01
  0.1167E+01
  0.1333E+01
  0.1500E+01
  0.1667E+01
  0.1833E+01
  0.2000E+01
  0.2167E+01
  0.2333E+01
  0.2500E+01
  0.2667E+01
  0.2833E+01
  0.3000E+01
  0.3167E+01
  0.3333E+01
  0.3500E+01
  0.3667E+01
  0.3833E+01
  0.4000E+01
  0.4167E+01
  0.4333E+01
  0.4500E+01
  0.4667E+01
  0.4833E+01
  0.5000E+01
  0.5167E+01
  0.5333E+01
  0.5500E+01
  0.5667E+01
  0.5833E+01
  0.6000E+01
  0.6167E+01
  0.6333E+01
  0.6500E+01
  0.6667E+01
  0.6833E+01
  0.7000E+01
  0.7167E+01
  0.7333E+01
  0.7500E+01
  0.7667E+01
  0.7833E+01
  0.8000E+01
  0.8167E+01
  0.8333E+01
  0.8500E+01
  0.8667E+01
  0.8833E+01
  0.9000E+01
  0.9167E+01
  0.9333E+01
  0.9500E+01
  0.9667E+01
  0.9833E+01
  0.1000E+02
Z_COORDINATES 1 double
0
CELL_DATA                 3600
FIELD FieldData 4
density 1                 3600 double
  0.1899E+01
  0.1899E+01
  0.1899E+01
  0.1899E+01
  0.1899E+01
  0.1899E+01
  0.1899E+01
  0.1899E+01
  0.1899E+01
  0.1899E+01
  0.1899E+01
  0.1899E+01
  0.1899E+01
  0.1899E+01
  0.1899E+01
  0.1897E+01
  0.1892E+01
  0.1874E+01
  0.1832E+01
  0.1760E+01
  0.1663E+01
  0.1555E+01
  0.1446E+01
  0.1339E+01
  0.1239E+01
  0.1147E+01
  0.1062E+01
  0.9849E+00
  0.9151E+00
  0.8527E+00
  0.7975E+00
  0.7499E+00
  0.7114E+00
  0.6842E+00
  0.6824E+00
  0.6874E+00
  0.6921E+00
  0.6919E+00
  0.6802E+00
  0.6468E+00
  0.6099E+00
  0.5860E+00
  0.5832E+00
  0.5865E+00
  0.5842E+00
  0.5122E+00
  0.3464E+00
  0.2386E+00
  0.2031E+00
  0.2000E+00
  0.2000E+00
  0.2000E+00
  0.2000E+00
  0.2000E+00
  0.2000E+00
  0.2000E+00
  0.2000E+00
  0.2000E+00
  0.2000E+00
  0.2000E+00
  0.1841E+01
  0.1841E+01
  0.1841E+01
  0.1841E+01
  0.1841E+01
  0.1841E+01
  0.1841E+01
  0.1841E+01
  0.1841E+01
  0.1841E+01
  0.1841E+01
  0.1841E+01
  0.1841E+01
  0.1841E+01
  0.1840E+01
  0.1839E+01
  0.1834E+01
  0.1817E+01
  0.1777E+01
  0.1707E+01
  0.1613E+01
  0.1509E+01
  0.1403E+01
  0.1300E+01
  0.1204E+01
  0.1114E+01
  0.1033E+01
  0.9585E+00
  0.8915E+00
  0.8317E+00
  0.7788E+00
  0.7334E+00
  0.6968E+00
  0.6717E+00
  0.6705E+00
  0.6765E+00
  0.6824E+00
  0.6825E+00
  0.6715E+00
  0.6388E+00
  0.6025E+00
  0.5793E+00
  0.5772E+00
  0.5813E+00
  0.5796E+00
  0.5089E+00
  0.3449E+00
  0.2381E+00
  0.2030E+00
  0.2000E+00
  0.2000E+00
  0.2000E+00
  0.2000E+00
  0.2000E+00
  0.2000E+00
  0.2000E+00
  0.2000E+00
  0.2000E+00
  0.2000E+00
  0.2000E+00
  0.1742E+01
  0.1742E+01
  0.1742E+01
  0.1742E+01
  0.1742E+01
  0.1742E+01
  0.1742E+01
  0.1742E+01
  0.1742E+01
  0.1742E+01
  0.1742E+01
  0.1742E+01
  0.1742E+01
  0.1742E+01
  0.1742E+01
  0.1741E+01
  0.1736E+01
  0.1720E+01
  0.1683E+01
  0.1618E+01
  0.1529E+01
  0.1430E+01
  0.1330E+01
  0.1233E+01
  0.1141E+01
  0.1057E+01
  0.9799E+00
  0.9101E+00
  0.8474E+00
  0.7915E+00
  0.7424E+00
  0.7003E+00
  0.6667E+00
  0.6447E+00
  0.6443E+00
  0.6517E+00
  0.6593E+00
  0.6601E+00
  0.6506E+00
  0.6198E+00
  0.5855E+00
  0.5648E+00
  0.5640E+00
  0.5710E+00
  0.5703E+00
  0.5021E+00
  0.3415E+00
  0.2370E+00
  0.2029E+00
  0.2000E+00
  0.2000E+00
  0.2000E+00
  0.2000E+00
  0.2000E+00
  0.2000E+00
  0.2000E+00
  0.2000E+00
  0.2000E+00
  0.2000E+00
  0.2000E+00
  0.1627E+01
  0.1627E+01
  0.1627E+01
  0.1627E+01
  0.1627E+01
  0.1627E+01
  0.1627E+01
  0.1627E+01
  0.1627E+01
  0.1627E+01
  0.1627E+01
  0.1627E+01
  0.1627E+01
  0.1627E+01
  0.1627E+01
  0.1626E+01
  0.1622E+01
  0.1608E+01
  0.1574E+01
  0.1514E+01
  0.1431E+01
  0.1338E+01
  0.1244E+01
  0.1152E+01
  0.1066E+01
  0.9871E+00
  0.9150E+00
  0.8498E+00
  0.7912E+00
  0.7393E+00
  0.6937E+00
  0.6549E+00
  0.6242E+00
  0.6052E+00
  0.6051E+00
  0.6130E+00
  0.6223E+00
  0.6240E+00
  0.6166E+00
  0.5898E+00
  0.5598E+00
  0.5443E+00
  0.5455E+00
  0.5568E+00
  0.5575E+00
  0.4914E+00
  0.3355E+00
  0.2350E+00
  0.2026E+00
  0.2000E+00
  0.2000E+00
  0.2000E+00
  0.2000E+00
  0.2000E+00
  0.2000E+00
  0.2000E+00
  0.2000E+00
  0.2000E+00
  0.2000E+00
  0.2000E+00
  0.1510E+01
  0.1510E+01
  0.1510E+01
  0.1510E+01
  0.1510E+01
  0.1510E+01
  0.1510E+01
  0.1510E+01
  0.1510E+01
  0.1510E+01
  0.1510E+01
  0.1510E+01
  0.1510E+01
  0.1510E+01
  0.1510E+01
  0.1509E+01
  0.1505E+01
  0.1493E+01
  0.1463E+01
  0.1407E+01
  0.1331E+01
  0.1244E+01
  0.1155E+01
  0.1070E+01
  0.9888E+00
  0.9145E+00
  0.8469E+00
  0.7858E+00
  0.7311E+00
  0.6827E+00
  0.6403E+00
  0.6042E+00
  0.5759E+00
  0.5589E+00
  0.5588E+00
  0.5663E+00
  0.5765E+00
  0.5798E+00
  0.5749E+00
  0.5541E+00
  0.5309E+00
  0.5221E+00
  0.5258E+00
  0.5415E+00
  0.5429E+00
  0.4764E+00
  0.3266E+00
  0.2319E+00
  0.2022E+00
  0.2000E+00
  0.2000E+00
  0.2000E+00
  0.2000E+00
  0.2000E+00
  0.2000E+00
  0.2000E+00
  0.2000E+00
  0.2000E+00
  0.2000E+00
  0.2000E+00
  0.1396E+01
  0.1396E+01
  0.1396E+01
  0.1396E+01
  0.1396E+01
  0.1396E+01
  0.1396E+01
  0.1396E+01
  0.1396E+01
  0.1396E+01
  0.1396E+01
  0.1396E+01
  0.1396E+01
  0.1396E+01
  0.1396E+01
  0.1395E+01
  0.1392E+01
  0.1381E+01
  0.1354E+01
  0.1304E+01
  0.1233E+01
  0.1152E+01
  0.1070E+01
  0.9890E+00
  0.9132E+00
  0.8435E+00
  0.7801E+00
  0.7228E+00
  0.6716E+00
  0.6263E+00
  0.5868E+00
  0.5532E+00
  0.5267E+00
  0.5111E+00
  0.5109E+00
  0.5177E+00
  0.5285E+00
  0.5349E+00
  0.5328E+00
  0.5198E+00
  0.5039E+00
  0.5003E+00
  0.5070E+00
  0.5262E+00
  0.5271E+00
  0.4573E+00
  0.3147E+00
  0.2275E+00
  0.2017E+00
  0.2000E+00
  0.2000E+00
  0.2000E+00
  0.2000E+00
  0.2000E+00
  0.2000E+00
  0.2000E+00
  0.2000E+00
  0.2000E+00
  0.2000E+00
  0.2000E+00
  0.1288E+01
  0.1288E+01
  0.1288E+01
  0.1288E+01
  0.1288E+01
  0.1288E+01
  0.1288E+01
  0.1288E+01
  0.1288E+01
  0.1288E+01
  0.1288E+01
  0.1288E+01
  0.1288E+01
  0.1288E+01
  0.1288E+01
  0.1287E+01
  0.1285E+01
  0.1276E+01
  0.1252E+01
  0.1207E+01
  0.1142E+01
  0.1066E+01
  0.9887E+00
  0.9131E+00
  0.8419E+00
  0.7765E+00
  0.7169E+00
  0.6632E+00
  0.6152E+00
  0.5728E+00
  0.5356E+00
  0.5041E+00
  0.4793E+00
  0.4646E+00
  0.4644E+00
  0.4711E+00
  0.4830E+00
  0.4942E+00
  0.4956E+00
  0.4905E+00
  0.4808E+00
  0.4800E+00
  0.4907E+00
  0.5119E+00
  0.5107E+00
  0.4339E+00
  0.2998E+00
  0.2222E+00
  0.2012E+00
  0.2000E+00
  0.2000E+00
  0.2000E+00
  0.2000E+00
  0.2000E+00
  0.2000E+00
  0.2000E+00
  0.2000E+00
  0.2000E+00
  0.2000E+00
  0.2000E+00
  0.1188E+01
  0.1188E+01
  0.1188E+01
  0.1188E+01
  0.1188E+01
  0.1188E+01
  0.1188E+01
  0.1188E+01
  0.1188E+01
  0.1188E+01
  0.1188E+01
  0.1188E+01
  0.1188E+01
  0.1188E+01
  0.1188E+01
  0.1188E+01
  0.1186E+01
  0.1178E+01
  0.1157E+01
  0.1117E+01
  0.1057E+01
  0.9871E+00
  0.9145E+00
  0.8434E+00
  0.7764E+00
  0.7149E+00
  0.6589E+00
  0.6084E+00
  0.5633E+00
  0.5235E+00
  0.4886E+00
  0.4589E+00
  0.4355E+00
  0.4213E+00
  0.4216E+00
  0.4289E+00
  0.4435E+00
  0.4605E+00
  0.4684E+00
  0.4667E+00
  0.4613E+00
  0.4622E+00
  0.4775E+00
  0.4987E+00
  0.4933E+00
  0.4058E+00
  0.2828E+00
  0.2166E+00
  0.2008E+00
  0.2000E+00
  0.2000E+00
  0.2000E+00
  0.2000E+00
  0.2000E+00
  0.2000E+00
  0.2000E+00
  0.2000E+00
  0.2000E+00
  0.2000E+00
  0.2000E+00
  0.1097E+01
  0.1097E+01
  0.1097E+01
  0.1097E+01
  0.1097E+01
  0.1097E+01
  0.1097E+01
  0.1097E+01
  0.1097E+01
  0.1097E+01
  0.1097E+01
  0.1097E+01
  0.1097E+01
  0.1097E+01
  0.1097E+01
  0.1097E+01
  0.1095E+01
  0.1089E+01
  0.1071E+01
  0.1035E+01
  0.9802E+00
  0.9150E+00
  0.8469E+00
  0.7800E+00
  0.7169E+00
  0.6589E+00
  0.6061E+00
  0.5586E+00
  0.5162E+00
  0.4787E+00
  0.4459E+00
  0.4177E+00
  0.3958E+00
  0.3828E+00
  0.3837E+00
  0.3931E+00
  0.4134E+00
  0.4378E+00
  0.4512E+00
  0.4496E+00
  0.4448E+00
  0.4478E+00
  0.4677E+00
  0.4874E+00
  0.4729E+00
  0.3735E+00
  0.2648E+00
  0.2111E+00
  0.2004E+00
  0.2000E+00
  0.2000E+00
  0.2000E+00
  0.2000E+00
  0.2000E+00
  0.2000E+00
  0.2000E+00
  0.2000E+00
  0.2000E+00
  0.2000E+00
  0.2000E+00
  0.1014E+01
  0.1014E+01
  0.1014E+01
  0.1014E+01
  0.1014E+01
  0.1014E+01
  0.1014E+01
  0.1014E+01
  0.1014E+01
  0.1014E+01
  0.1014E+01
  0.1014E+01
  0.1014E+01
  0.1014E+01
  0.1014E+01
  0.1014E+01
  0.1013E+01
  0.1007E+01
  0.9921E+00
  0.9601E+00
  0.9104E+00
  0.8497E+00
  0.7857E+00
  0.7228E+00
  0.6632E+00
  0.6084E+00
  0.5586E+00
  0.5138E+00
  0.4739E+00
  0.4385E+00
  0.4077E+00
  0.3810E+00
  0.3587E+00
  0.3507E+00
  0.3532E+00
  0.3670E+00
  0.4005E+00
  0.4372E+00
  0.4436E+00
  0.4364E+00
  0.4307E+00
  0.4371E+00
  0.4615E+00
  0.4752E+00
  0.4464E+00
  0.3384E+00
  0.2471E+00
  0.2066E+00
  0.2002E+00
  0.2000E+00
  0.2000E+00
  0.2000E+00
  0.2000E+00
  0.2000E+00
  0.2000E+00
  0.2000E+00
  0.2000E+00
  0.2000E+00
  0.2000E+00
  0.2000E+00
  0.9397E+00
  0.9397E+00
  0.9397E+00
  0.9397E+00
  0.9397E+00
  0.9397E+00
  0.9397E+00
  0.9397E+00
  0.9397E+00
  0.9397E+00
  0.9397E+00
  0.9397E+00
  0.9397E+00
  0.9397E+00
  0.9396E+00
  0.9394E+00
  0.9383E+00
  0.9339E+00
  0.9209E+00
  0.8927E+00
  0.8475E+00
  0.7912E+00
  0.7310E+00
  0.6716E+00
  0.6152E+00
  0.5633E+00
  0.5162E+00
  0.4739E+00
  0.4361E+00
  0.4029E+00
  0.3734E+00
  0.3485E+00
  0.3267E+00
  0.3249E+00
  0.3337E+00
  0.3668E+00
  0.4106E+00
  0.4383E+00
  0.4366E+00
  0.4231E+00
  0.4209E+00
  0.4330E+00
  0.4578E+00
  0.4606E+00
  0.4101E+00
  0.3047E+00
  0.2311E+00
  0.2034E+00
  0.2001E+00
  0.2000E+00
  0.2000E+00
  0.2000E+00
  0.2000E+00
  0.2000E+00
  0.2000E+00
  0.2000E+00
  0.2000E+00
  0.2000E+00
  0.2000E+00
  0.2000E+00
  0.8730E+00
  0.8730E+00
  0.8730E+00
  0.8730E+00
  0.8730E+00
  0.8730E+00
  0.8730E+00
  0.8730E+00
  0.8730E+00
  0.8730E+00
  0.8730E+00
  0.8730E+00
  0.8730E+00
  0.8730E+00
  0.8730E+00
  0.8728E+00
  0.8719E+00
  0.8684E+00
  0.8574E+00
  0.8326E+00
  0.7916E+00
  0.7392E+00
  0.6826E+00
  0.6263E+00
  0.5727E+00
  0.5235E+00
  0.4787E+00
  0.4385E+00
  0.4029E+00
  0.3711E+00
  0.3434E+00
  0.3178E+00
  0.3043E+00
  0.3107E+00
  0.3377E+00
  0.3822E+00
  0.4273E+00
  0.4350E+00
  0.4255E+00
  0.4128E+00
  0.4154E+00
  0.4350E+00
  0.4522E+00
  0.4411E+00
  0.3655E+00
  0.2736E+00
  0.2181E+00
  0.2015E+00
  0.2000E+00
  0.2000E+00
  0.2000E+00
  0.2000E+00
  0.2000E+00
  0.2000E+00
  0.2000E+00
  0.2000E+00
  0.2000E+00
  0.2000E+00
  0.2000E+00
  0.2000E+00
  0.8142E+00
  0.8142E+00
  0.8142E+00
  0.8142E+00
  0.8142E+00
  0.8142E+00
  0.8142E+00
  0.8142E+00
  0.8142E+00
  0.8142E+00
  0.8142E+00
  0.8142E+00
  0.8142E+00
  0.8142E+00
  0.8141E+00
  0.8140E+00
  0.8133E+00
  0.8104E+00
  0.8012E+00
  0.7796E+00
  0.7424E+00
  0.6936E+00
  0.6402E+00
  0.5867E+00
  0.5356E+00
  0.4885E+00
  0.4459E+00
  0.4077E+00
  0.3734E+00
  0.3434E+00
  0.3164E+00
  0.2952E+00
  0.2989E+00
  0.3181E+00
  0.3551E+00
  0.4028E+00
  0.4304E+00
  0.4275E+00
  0.4119E+00
  0.4078E+00
  0.4172E+00
  0.4374E+00
  0.4417E+00
  0.4069E+00
  0.3207E+00
  0.2471E+00
  0.2091E+00
  0.2006E+00
  0.2000E+00
  0.2000E+00
  0.2000E+00
  0.2000E+00
  0.2000E+00
  0.2000E+00
  0.2000E+00
  0.2000E+00
  0.2000E+00
  0.2000E+00
  0.2000E+00
  0.2000E+00
  0.7636E+00
  0.7636E+00
  0.7636E+00
  0.7636E+00
  0.7636E+00
  0.7636E+00
  0.7636E+00
  0.7636E+00
  0.7636E+00
  0.7636E+00
  0.7636E+00
  0.7636E+00
  0.7636E+00
  0.7636E+00
  0.7635E+00
  0.7634E+00
  0.7629E+00
  0.7606E+00
  0.7528E+00
  0.7339E+00
  0.7003E+00
  0.6549E+00
  0.6042E+00
  0.5531E+00
  0.5041E+00
  0.4588E+00
  0.4176E+00
  0.3810E+00
  0.3484E+00
  0.3179E+00
  0.2952E+00
  0.2940E+00
  0.3045E+00
  0.3395E+00
  0.3838E+00
  0.4197E+00
  0.4241E+00
  0.4135E+00
  0.4050E+00
  0.4088E+00
  0.4252E+00
  0.4352E+00
  0.4220E+00
  0.3591E+00
  0.2817E+00
  0.2265E+00
  0.2039E+00
  0.2002E+00
  0.2000E+00
  0.2000E+00
  0.2000E+00
  0.2000E+00
  0.2000E+00
  0.2000E+00
  0.2000E+00
  0.2000E+00
  0.2000E+00
  0.2000E+00
  0.2000E+00
  0.2000E+00
  0.7226E+00
  0.7226E+00
  0.7226E+00
  0.7226E+00
  0.7226E+00
  0.7226E+00
  0.7226E+00
  0.7226E+00
  0.7226E+00
  0.7226E+00
  0.7226E+00
  0.7226E+00
  0.7226E+00
  0.7226E+00
  0.7226E+00
  0.7225E+00
  0.7221E+00
  0.7202E+00
  0.7137E+00
  0.6973E+00
  0.6667E+00
  0.6241E+00
  0.5758E+00
  0.5267E+00
  0.4793E+00
  0.4355E+00
  0.3958E+00
  0.3586E+00
  0.3268E+00
  0.3044E+00
  0.2987E+00
  0.3046E+00
  0.3228E+00
  0.3652E+00
  0.4161E+00
  0.4248E+00
  0.4167E+00
  0.4048E+00
  0.4055E+00
  0.4174E+00
  0.4287E+00
  0.4246E+00
  0.3832E+00
  0.3122E+00
  0.2498E+00
  0.2127E+00
  0.2014E+00
  0.2001E+00
  0.2000E+00
  0.2000E+00
  0.2000E+00
  0.2000E+00
  0.2000E+00
  0.2000E+00
  0.2000E+00
  0.2000E+00
  0.2000E+00
  0.2000E+00
  0.2000E+00
  0.2000E+00
  0.6931E+00
  0.6931E+00
  0.6931E+00
  0.6931E+00
  0.6931E+00
  0.6931E+00
  0.6931E+00
  0.6931E+00
  0.6931E+00
  0.6931E+00
  0.6931E+00
  0.6931E+00
  0.6931E+00
  0.6931E+00
  0.6931E+00
  0.6931E+00
  0.6928E+00
  0.6913E+00
  0.6860E+00
  0.6720E+00
  0.6447E+00
  0.6052E+00
  0.5589E+00
  0.5111E+00
  0.4646E+00
  0.4213E+00
  0.3828E+00
  0.3508E+00
  0.3248E+00
  0.3106E+00
  0.3179E+00
  0.3395E+00
  0.3651E+00
  0.3973E+00
  0.4215E+00
  0.4200E+00
  0.4081E+00
  0.4053E+00
  0.4126E+00
  0.4243E+00
  0.4241E+00
  0.3960E+00
  0.3346E+00
  0.2722E+00
  0.2263E+00
  0.2050E+00
  0.2004E+00
  0.2000E+00
  0.2000E+00
  0.2000E+00
  0.2000E+00
  0.2000E+00
  0.2000E+00
  0.2000E+00
  0.2000E+00
  0.2000E+00
  0.2000E+00
  0.2000E+00
  0.2000E+00
  0.2000E+00
  0.6904E+00
  0.6904E+00
  0.6904E+00
  0.6904E+00
  0.6904E+00
  0.6904E+00
  0.6904E+00
  0.6904E+00
  0.6904E+00
  0.6904E+00
  0.6904E+00
  0.6904E+00
  0.6904E+00
  0.6904E+00
  0.6904E+00
  0.6904E+00
  0.6901E+00
  0.6888E+00
  0.6840E+00
  0.6708E+00
  0.6443E+00
  0.6051E+00
  0.5588E+00
  0.5109E+00
  0.4644E+00
  0.4216E+00
  0.3837E+00
  0.3532E+00
  0.3336E+00
  0.3377E+00
  0.3551E+00
  0.3837E+00
  0.4158E+00
  0.4220E+00
  0.4166E+00
  0.4067E+00
  0.4051E+00
  0.4113E+00
  0.4214E+00
  0.4224E+00
  0.4025E+00
  0.3495E+00
  0.2900E+00
  0.2408E+00
  0.2115E+00
  0.2016E+00
  0.2001E+00
  0.2000E+00
  0.2000E+00
  0.2000E+00
  0.2000E+00
  0.2000E+00
  0.2000E+00
  0.2000E+00
  0.2000E+00
  0.2000E+00
  0.2000E+00
  0.2000E+00
  0.2000E+00
  0.2000E+00
  0.6942E+00
  0.6942E+00
  0.6942E+00
  0.6942E+00
  0.6942E+00
  0.6942E+00
  0.6942E+00
  0.6942E+00
  0.6942E+00
  0.6942E+00
  0.6942E+00
  0.6942E+00
  0.6942E+00
  0.6942E+00
  0.6942E+00
  0.6942E+00
  0.6940E+00
  0.6929E+00
  0.6887E+00
  0.6768E+00
  0.6517E+00
  0.6130E+00
  0.5663E+00
  0.5178E+00
  0.4711E+00
  0.4289E+00
  0.3931E+00
  0.3669E+00
  0.3672E+00
  0.3819E+00
  0.4026E+00
  0.4198E+00
  0.4248E+00
  0.4204E+00
  0.4068E+00
  0.4041E+00
  0.4083E+00
  0.4191E+00
  0.4207E+00
  0.4036E+00
  0.3577E+00
  0.3029E+00
  0.2535E+00
  0.2194E+00
  0.2041E+00
  0.2004E+00
  0.2000E+00
  0.2000E+00
  0.2000E+00
  0.2000E+00
  0.2000E+00
  0.2000E+00
  0.2000E+00
  0.2000E+00
  0.2000E+00
  0.2000E+00
  0.2000E+00
  0.2000E+00
  0.2000E+00
  0.2000E+00
  0.6979E+00
  0.6979E+00
  0.6979E+00
  0.6979E+00
  0.6979E+00
  0.6979E+00
  0.6979E+00
  0.6979E+00
  0.6979E+00
  0.6979E+00
  0.6979E+00
  0.6979E+00
  0.6979E+00
  0.6979E+00
  0.6979E+00
  0.6979E+00
  0.6977E+00
  0.6968E+00
  0.6933E+00
  0.6826E+00
  0.6593E+00
  0.6222E+00
  0.5765E+00
  0.5286E+00
  0.4831E+00
  0.4436E+00
  0.4134E+00
  0.4005E+00
  0.4105E+00
  0.4273E+00
  0.4304E+00
  0.4243E+00
  0.4167E+00
  0.4078E+00
  0.4049E+00
  0.4081E+00
  0.4152E+00
  0.4179E+00
  0.4026E+00
  0.3585E+00
  0.3096E+00
  0.2632E+00
  0.2271E+00
  0.2075E+00
  0.2011E+00
  0.2001E+00
  0.2000E+00
  0.2000E+00
  0.2000E+00
  0.2000E+00
  0.2000E+00
  0.2000E+00
  0.2000E+00
  0.2000E+00
  0.2000E+00
  0.2000E+00
  0.2000E+00
  0.2000E+00
  0.2000E+00
  0.2000E+00
  0.6974E+00
  0.6974E+00
  0.6974E+00
  0.6974E+00
  0.6974E+00
  0.6974E+00
  0.6974E+00
  0.6974E+00
  0.6974E+00
  0.6974E+00
  0.6974E+00
  0.6974E+00
  0.6974E+00
  0.6974E+00
  0.6974E+00
  0.6974E+00
  0.6972E+00
  0.6964E+00
  0.6930E+00
  0.6827E+00
  0.6601E+00
  0.6240E+00
  0.5798E+00
  0.5348E+00
  0.4942E+00
  0.4606E+00
  0.4378E+00
  0.4371E+00
  0.4383E+00
  0.4346E+00
  0.4274E+00
  0.4140E+00
  0.4050E+00
  0.4055E+00
  0.4112E+00
  0.4191E+00
  0.4178E+00
  0.3995E+00
  0.3576E+00
  0.3103E+00
  0.2683E+00
  0.2336E+00
  0.2112E+00
  0.2023E+00
  0.2003E+00
  0.2000E+00
  0.2000E+00
  0.2000E+00
  0.2000E+00
  0.2000E+00
  0.2000E+00
  0.2000E+00
  0.2000E+00
  0.2000E+00
  0.2000E+00
  0.2000E+00
  0.2000E+00
  0.2000E+00
  0.2000E+00
  0.2000E+00
  0.6852E+00
  0.6852E+00
  0.6852E+00
  0.6852E+00
  0.6852E+00
  0.6852E+00
  0.6852E+00
  0.6852E+00
  0.6852E+00
  0.6852E+00
  0.6852E+00
  0.6852E+00
  0.6852E+00
  0.6852E+00
  0.6852E+00
  0.6851E+00
  0.6850E+00
  0.6842E+00
  0.6811E+00
  0.6716E+00
  0.6506E+00
  0.6166E+00
  0.5748E+00
  0.5328E+00
  0.4956E+00
  0.4684E+00
  0.4514E+00
  0.4432E+00
  0.4366E+00
  0.4254E+00
  0.4117E+00
  0.4049E+00
  0.4057E+00
  0.4127E+00
  0.4214E+00
  0.4206E+00
  0.4027E+00
  0.3577E+00
  0.3099E+00
  0.2688E+00
  0.2371E+00
  0.2146E+00
  0.2036E+00
  0.2005E+00
  0.2001E+00
  0.2000E+00
  0.2000E+00
  0.2000E+00
  0.2000E+00
  0.2000E+00
  0.2000E+00
  0.2000E+00
  0.2000E+00
  0.2000E+00
  0.2000E+00
  0.2000E+00
  0.2000E+00
  0.2000E+00
  0.2000E+00
  0.2000E+00
  0.6516E+00
  0.6516E+00
  0.6516E+00
  0.6516E+00
  0.6516E+00
  0.6516E+00
  0.6516E+00
  0.6516E+00
  0.6516E+00
  0.6516E+00
  0.6516E+00
  0.6516E+00
  0.6516E+00
  0.6516E+00
  0.6516E+00
  0.6516E+00
  0.6514E+00
  0.6507E+00
  0.6478E+00
  0.6389E+00
  0.6197E+00
  0.5897E+00
  0.5541E+00
  0.5198E+00
  0.4905E+00
  0.4668E+00
  0.4497E+00
  0.4364E+00
  0.4230E+00
  0.4128E+00
  0.4079E+00
  0.4089E+00
  0.4171E+00
  0.4242E+00
  0.4225E+00
  0.4036E+00
  0.3586E+00
  0.3103E+00
  0.2688E+00
  0.2374E+00
  0.2164E+00
  0.2050E+00
  0.2009E+00
  0.2001E+00
  0.2000E+00
  0.2000E+00
  0.2000E+00
  0.2000E+00
  0.2000E+00
  0.2000E+00
  0.2000E+00
  0.2000E+00
  0.2000E+00
  0.2000E+00
  0.2000E+00
  0.2000E+00
  0.2000E+00
  0.2000E+00
  0.2000E+00
  0.2000E+00
  0.6145E+00
  0.6145E+00
  0.6145E+00
  0.6145E+00
  0.6145E+00
  0.6145E+00
  0.6145E+00
  0.6145E+00
  0.6145E+00
  0.6145E+00
  0.6145E+00
  0.6145E+00
  0.6145E+00
  0.6145E+00
  0.6145E+00
  0.6144E+00
  0.6143E+00
  0.6136E+00
  0.6108E+00
  0.6026E+00
  0.5854E+00
  0.5597E+00
  0.5309E+00
  0.5039E+00
  0.4808E+00
  0.4613E+00
  0.4448E+00
  0.4306E+00
  0.4207E+00
  0.4154E+00
  0.4172E+00
  0.4249E+00
  0.4288E+00
  0.4240E+00
  0.4024E+00
  0.3577E+00
  0.3096E+00
  0.2683E+00
  0.2371E+00
  0.2164E+00
  0.2056E+00
  0.2012E+00
  0.2002E+00
  0.2000E+00
  0.2000E+00
  0.2000E+00
  0.2000E+00
  0.2000E+00
  0.2000E+00
  0.2000E+00
  0.2000E+00
  0.2000E+00
  0.2000E+00
  0.2000E+00
  0.2000E+00
  0.2000E+00
  0.2000E+00
  0.2000E+00
  0.2000E+00
  0.2000E+00
  0.5904E+00
  0.5904E+00
  0.5904E+00
  0.5904E+00
  0.5904E+00
  0.5904E+00
  0.5904E+00
  0.5904E+00
  0.5904E+00
  0.5904E+00
  0.5904E+00
  0.5904E+00
  0.5904E+00
  0.5904E+00
  0.5904E+00
  0.5904E+00
  0.5902E+00
  0.5895E+00
  0.5869E+00
  0.5794E+00
  0.5648E+00
  0.5442E+00
  0.5220E+00
  0.5004E+00
  0.4800E+00
  0.4622E+00
  0.4477E+00
  0.4371E+00
  0.4329E+00
  0.4348E+00
  0.4375E+00
  0.4351E+00
  0.4248E+00
  0.3959E+00
  0.3495E+00
  0.3029E+00
  0.2632E+00
  0.2336E+00
  0.2146E+00
  0.2050E+00
  0.2012E+00
  0.2002E+00
  0.2000E+00
  0.2000E+00
  0.2000E+00
  0.2000E+00
  0.2000E+00
  0.2000E+00
  0.2000E+00
  0.2000E+00
  0.2000E+00
  0.2000E+00
  0.2000E+00
  0.2000E+00
  0.2000E+00
  0.2000E+00
  0.2000E+00
  0.2000E+00
  0.2000E+00
  0.2000E+00
  0.5872E+00
  0.5872E+00
  0.5872E+00
  0.5872E+00
  0.5872E+00
  0.5872E+00
  0.5872E+00
  0.5872E+00
  0.5872E+00
  0.5872E+00
  0.5872E+00
  0.5872E+00
  0.5872E+00
  0.5872E+00
  0.5872E+00
  0.5872E+00
  0.5871E+00
  0.5864E+00
  0.5840E+00
  0.5773E+00
  0.5640E+00
  0.5454E+00
  0.5258E+00
  0.5070E+00
  0.4908E+00
  0.4775E+00
  0.4678E+00
  0.4616E+00
  0.4577E+00
  0.4523E+00
  0.4415E+00
  0.4220E+00
  0.3831E+00
  0.3347E+00
  0.2900E+00
  0.2535E+00
  0.2271E+00
  0.2112E+00
  0.2036E+00
  0.2009E+00
  0.2002E+00
  0.2000E+00
  0.2000E+00
  0.2000E+00
  0.2000E+00
  0.2000E+00
  0.2000E+00
  0.2000E+00
  0.2000E+00
  0.2000E+00
  0.2000E+00
  0.2000E+00
  0.2000E+00
  0.2000E+00
  0.2000E+00
  0.2000E+00
  0.2000E+00
  0.2000E+00
  0.2000E+00
  0.2000E+00
  0.5902E+00
  0.5902E+00
  0.5902E+00
  0.5902E+00
  0.5902E+00
  0.5902E+00
  0.5902E+00
  0.5902E+00
  0.5902E+00
  0.5902E+00
  0.5902E+00
  0.5902E+00
  0.5902E+00
  0.5902E+00
  0.5902E+00
  0.5901E+00
  0.5900E+00
  0.5894E+00
  0.5872E+00
  0.5815E+00
  0.5710E+00
  0.5568E+00
  0.5415E+00
  0.5262E+00
  0.5119E+00
  0.4987E+00
  0.4874E+00
  0.4751E+00
  0.4606E+00
  0.4412E+00
  0.4068E+00
  0.3590E+00
  0.3122E+00
  0.2721E+00
  0.2408E+00
  0.2194E+00
  0.2075E+00
  0.2023E+00
  0.2005E+00
  0.2001E+00
  0.2000E+00
  0.2000E+00
  0.2000E+00
  0.2000E+00
  0.2000E+00
  0.2000E+00
  0.2000E+00
  0.2000E+00
  0.2000E+00
  0.2000E+00
  0.2000E+00
  0.2000E+00
  0.2000E+00
  0.2000E+00
  0.2000E+00
  0.2000E+00
  0.2000E+00
  0.2000E+00
  0.2000E+00
  0.2000E+00
  0.5874E+00
  0.5874E+00
  0.5874E+00
  0.5874E+00
  0.5874E+00
  0.5874E+00
  0.5874E+00
  0.5874E+00
  0.5874E+00
  0.5874E+00
  0.5874E+00
  0.5874E+00
  0.5874E+00
  0.5874E+00
  0.5874E+00
  0.5874E+00
  0.5873E+00
  0.5868E+00
  0.5848E+00
  0.5797E+00
  0.5703E+00
  0.5575E+00
  0.5429E+00
  0.5271E+00
  0.5107E+00
  0.4933E+00
  0.4728E+00
  0.4463E+00
  0.4101E+00
  0.3654E+00
  0.3207E+00
  0.2816E+00
  0.2498E+00
  0.2263E+00
  0.2115E+00
  0.2041E+00
  0.2011E+00
  0.2003E+00
  0.2001E+00
  0.2000E+00
  0.2000E+00
  0.2000E+00
  0.2000E+00
  0.2000E+00
  0.2000E+00
  0.2000E+00
  0.2000E+00
  0.2000E+00
  0.2000E+00
  0.2000E+00
  0.2000E+00
  0.2000E+00
  0.2000E+00
  0.2000E+00
  0.2000E+00
  0.2000E+00
  0.2000E+00
  0.2000E+00
  0.2000E+00
  0.2000E+00
  0.5146E+00
  0.5146E+00
  0.5146E+00
  0.5146E+00
  0.5146E+00
  0.5146E+00
  0.5146E+00
  0.5146E+00
  0.5146E+00
  0.5146E+00
  0.5146E+00
  0.5146E+00
  0.5146E+00
  0.5146E+00
  0.5146E+00
  0.5146E+00
  0.5145E+00
  0.5141E+00
  0.5126E+00
  0.5090E+00
  0.5021E+00
  0.4913E+00
  0.4764E+00
  0.4572E+00
  0.4338E+00
  0.4058E+00
  0.3734E+00
  0.3384E+00
  0.3047E+00
  0.2736E+00
  0.2471E+00
  0.2266E+00
  0.2127E+00
  0.2050E+00
  0.2016E+00
  0.2004E+00
  0.2001E+00
  0.2000E+00
  0.2000E+00
  0.2000E+00
  0.2000E+00
  0.2000E+00
  0.2000E+00
  0.2000E+00
  0.2000E+00
  0.2000E+00
  0.2000E+00
  0.2000E+00
  0.2000E+00
  0.2000E+00
  0.2000E+00
  0.2000E+00
  0.2000E+00
  0.2000E+00
  0.2000E+00
  0.2000E+00
  0.2000E+00
  0.2000E+00
  0.2000E+00
  0.2000E+00
  0.3476E+00
  0.3476E+00
  0.3476E+00
  0.3476E+00
  0.3476E+00
  0.3476E+00
  0.3476E+00
  0.3476E+00
  0.3476E+00
  0.3476E+00
  0.3476E+00
  0.3476E+00
  0.3476E+00
  0.3476E+00
  0.3476E+00
  0.3476E+00
  0.3476E+00
  0.3474E+00
  0.3467E+00
  0.3449E+00
  0.3414E+00
  0.3355E+00
  0.3266E+00
  0.3146E+00
  0.2998E+00
  0.2828E+00
  0.2648E+00
  0.2471E+00
  0.2311E+00
  0.2181E+00
  0.2091E+00
  0.2039E+00
  0.2014E+00
  0.2004E+00
  0.2001E+00
  0.2000E+00
  0.2000E+00
  0.2000E+00
  0.2000E+00
  0.2000E+00
  0.2000E+00
  0.2000E+00
  0.2000E+00
  0.2000E+00
  0.2000E+00
  0.2000E+00
  0.2000E+00
  0.2000E+00
  0.2000E+00
  0.2000E+00
  0.2000E+00
  0.2000E+00
  0.2000E+00
  0.2000E+00
  0.2000E+00
  0.2000E+00
  0.2000E+00
  0.2000E+00
  0.2000E+00
  0.2000E+00
  0.2390E+00
  0.2390E+00
  0.2390E+00
  0.2390E+00
  0.2390E+00
  0.2390E+00
  0.2390E+00
  0.2390E+00
  0.2390E+00
  0.2390E+00
  0.2390E+00
  0.2390E+00
  0.2390E+00
  0.2390E+00
  0.2390E+00
  0.2390E+00
  0.2390E+00
  0.2389E+00
  0.2387E+00
  0.2382E+00
  0.2370E+00
  0.2350E+00
  0.2319E+00
  0.2275E+00
  0.2222E+00
  0.2166E+00
  0.2111E+00
  0.2066E+00
  0.2034E+00
  0.2015E+00
  0.2006E+00
  0.2002E+00
  0.2001E+00
  0.2000E+00
  0.2000E+00
  0.2000E+00
  0.2000E+00
  0.2000E+00
  0.2000E+00
  0.2000E+00
  0.2000E+00
  0.2000E+00
  0.2000E+00
  0.2000E+00
  0.2000E+00
  0.2000E+00
  0.2000E+00
  0.2000E+00
  0.2000E+00
  0.2000E+00
  0.2000E+00
  0.2000E+00
  0.2000E+00
  0.2000E+00
  0.2000E+00
  0.2000E+00
  0.2000E+00
  0.2000E+00
  0.2000E+00
  0.2000E+00
  0.2031E+00
  0.2031E+00
  0.2031E+00
  0.2031E+00
  0.2031E+00
  0.2031E+00
  0.2031E+00
  0.2031E+00
  0.2031E+00
  0.2031E+00
  0.2031E+00
  0.2031E+00
  0.2031E+00
  0.2031E+00
  0.2031E+00
  0.2031E+00
  0.2031E+00
  0.2031E+00
  0.2031E+00
  0.2030E+00
  0.2029E+00
  0.2026E+00
  0.2022E+00
  0.2017E+00
  0.2012E+00
  0.2008E+00
  0.2004E+00
  0.2002E+00
  0.2001E+00
  0.2000E+00
  0.2000E+00
  0.2000E+00
  0.2000E+00
  0.2000E+00
  0.2000E+00
  0.2000E+00
  0.2000E+00
  0.2000E+00
  0.2000E+00
  0.2000E+00
  0.2000E+00
  0.2000E+00
  0.2000E+00
  0.2000E+00
  0.2000E+00
  0.2000E+00
  0.2000E+00
  0.2000E+00
  0.2000E+00
  0.2000E+00
  0.2000E+00
  0.2000E+00
  0.2000E+00
  0.2000E+00
  0.2000E+00
  0.2000E+00
  0.2000E+00
  0.2000E+00
  0.2000E+00
  0.2000E+00
  0.2000E+00
  0.2000E+00
  0.2000E+00
  0.2000E+00
  0.2000E+00
  0.2000E+00
  0.2000E+00
  0.2000E+00
  0.2000E+00
  0.2000E+00
  0.2000E+00
  0.2000E+00
  0.2000E+00
  0.2000E+00
  0.2000E+00
  0.2000E+00
  0.2000E+00
  0.2000E+00
  0.2000E+00
  0.2000E+00
  0.2000E+00
  0.2000E+00
  0.2000E+00
  0.2000E+00
  0.2000E+00
  0.2000E+00
  0.2000E+00
  0.2000E+00
  0.2000E+00
  0.2000E+00
  0.2000E+00
  0.2000E+00
  0.2000E+00
  0.2000E+00
  0.2000E+00
  0.2000E+00
  0.2000E+00
  0.2000E+00
  0.2000E+00
  0.2000E+00
  0.2000E+00
  0.2000E+00
  0.2000E+00
  0.2000E+00
  0.2000E+00
  0.2000E+00
  0.2000E+00
  0.2000E+00
  0.2000E+00
  0.2000E+00
  0.2000E+00
  0.2000E+00
  0.2000E+00
  0.2000E+00
  0.2000E+00
  0.2000E+00
  0.2000E+00
  0.2000E+00
  0.2000E+00
  0.2000E+00
  0.2000E+00
  0.2000E+00
  0.2000E+00
  0.2000E+00
  0.2000E+00
  0.2000E+00
  0.2000E+00
  0.2000E+00
  0.2000E+00
  0.2000E+00
  0.2000E+00
  0.2000E+00
  0.2000E+00
  0.2000E+00
  0.2000E+00
  0.2000E+00
  0.2000E+00
  0.2000E+00
  0.2000E+00
  0.2000E+00
  0.2000E+00
  0.2000E+00
  0.2000E+00
  0.2000E+00
  0.2000E+00
  0.2000E+00
  0.2000E+00
  0.2000E+00
  0.2000E+00
  0.2000E+00
  0.2000E+00
  0.2000E+00
  0.2000E+00
  0.2000E+00
  0.2000E+00
  0.2000E+00
  0.2000E+00
  0.2000E+00
  0.2000E+00
  0.2000E+00
  0.2000E+00
  0.2000E+00
  0.2000E+00
  0.2000E+00
  0.2000E+00
  0.2000E+00
  0.2000E+00
  0.2000E+00
  0.2000E+00
  0.2000E+00
  0.2000E+00
  0.2000E+00
  0.2000E+00
  0.2000E+00
  0.2000E+00
  0.2000E+00
  0.2000E+00
  0.2000E+00
  0.2000E+00
  0.2000E+00
  0.2000E+00
  0.2000E+00
  0.2000E+00
  0.2000E+00
  0.2000E+00
  0.2000E+00
  0.2000E+00
  0.2000E+00
  0.2000E+00
  0.2000E+00
  0.2000E+00
  0.2000E+00
  0.2000E+00
  0.2000E+00
  0.2000E+00
  0.2000E+00
  0.2000E+00
  0.2000E+00
  0.2000E+00
  0.2000E+00
  0.2000E+00
  0.2000E+00
  0.2000E+00
  0.2000E+00
  0.2000E+00
  0.2000E+00
  0.2000E+00
  0.2000E+00
  0.2000E+00
  0.2000E+00
  0.2000E+00
  0.2000E+00
  0.2000E+00
  0.2000E+00
  0.2000E+00
  0.2000E+00
  0.2000E+00
  0.2000E+00
  0.2000E+00
  0.2000E+00
  0.2000E+00
  0.2000E+00
  0.2000E+00
  0.2000E+00
  0.2000E+00
  0.2000E+00
  0.2000E+00
  0.2000E+00
  0.2000E+00
  0.2000E+00
  0.2000E+00
  0.2000E+00
  0.2000E+00
  0.2000E+00
  0.2000E+00
  0.2000E+00
  0.2000E+00
  0.2000E+00
  0.2000E+00
  0.2000E+00
  0.2000E+00
  0.2000E+00
  0.2000E+00
  0.2000E+00
  0.2000E+00
  0.2000E+00
  0.2000E+00
  0.2000E+00
  0.2000E+00
  0.2000E+00
  0.2000E+00
  0.2000E+00
  0.2000E+00
  0.2000E+00
  0.2000E+00
  0.2000E+00
  0.2000E+00
  0.2000E+00
  0.2000E+00
  0.2000E+00
  0.2000E+00
  0.2000E+00
  0.2000E+00
  0.2000E+00
  0.2000E+00
  0.2000E+00
  0.2000E+00
  0.2000E+00
  0.2000E+00
  0.2000E+00
  0.2000E+00
  0.2000E+00
  0.2000E+00
  0.2000E+00
  0.2000E+00
  0.2000E+00
  0.2000E+00
  0.2000E+00
  0.2000E+00
  0.2000E+00
  0.2000E+00
  0.2000E+00
  0.2000E+00
  0.2000E+00
  0.2000E+00
  0.2000E+00
  0.2000E+00
  0.2000E+00
  0.2000E+00
  0.2000E+00
  0.2000E+00
  0.2000E+00
  0.2000E+00
  0.2000E+00
  0.2000E+00
  0.2000E+00
  0.2000E+00
  0.2000E+00
  0.2000E+00
  0.2000E+00
  0.2000E+00
  0.2000E+00
  0.2000E+00
  0.2000E+00
  0.2000E+00
  0.2000E+00
  0.2000E+00
  0.2000E+00
  0.2000E+00
  0.2000E+00
  0.2000E+00
  0.2000E+00
  0.2000E+00
  0.2000E+00
  0.2000E+00
  0.2000E+00
  0.2000E+00
  0.2000E+00
  0.2000E+00
  0.2000E+00
  0.2000E+00
  0.2000E+00
  0.2000E+00
  0.2000E+00
  0.2000E+00
  0.2000E+00
  0.2000E+00
  0.2000E+00
  0.2000E+00
  0.2000E+00
  0.2000E+00
  0.2000E+00
  0.2000E+00
  0.2000E+00
  0.2000E+00
  0.2000E+00
  0.2000E+00
  0.2000E+00
  0.2000E+00
  0.2000E+00
  0.2000E+00
  0.2000E+00
  0.2000E+00
  0.2000E+00
  0.2000E+00
  0.2000E+00
  0.2000E+00
  0.2000E+00
  0.2000E+00
  0.2000E+00
  0.2000E+00
  0.2000E+00
  0.2000E+00
  0.2000E+00
  0.2000E+00
  0.2000E+00
  0.2000E+00
  0.2000E+00
  0.2000E+00
  0.2000E+00
  0.2000E+00
  0.2000E+00
  0.2000E+00
  0.2000E+00