# vtk DataFile Version 3.0
vtk output
ASCII
DATASET RECTILINEAR_GRID
DIMENSIONS          61          61 1
X_COORDINATES    61 double
  0.0000E+00
  0.1667E+00
  0.3333E+00
  0.5000E+00
  0.6667E+00
  0.8333E+00
  0.1000E+01
  0.1167E+01
  0.1333E+01
  0.1500E+01
  0.1667E+01
  0.1833E+01
  0.2000E+01
  0.2167E+01
  0.2333E+01
  0.2500E+01
  0.2667E+01
  0.2833E+01
  0.3000E+01
  0.3167E+01
  0.3333E+01
  0.3500E+01
  0.3667E+01
  0.3833E+01
  0.4000E+01
  0.4167E+01
  0.4333E+01
  0.4500E+01
  0.4667E+01
  0.4833E+01
  0.5000E+01
  0.5167E+01
  0.5333E+01
  0.5500E+01
  0.5667E+01
  0.5833E+01
  0.6000E+01
  0.6167E+01
  0.6333E+01
  0.6500E+01
  0.6667E+01
  0.6833E+01
  0.7000E+01
  0.7167E+01
  0.7333E+01
  0.7500E+01
  0.7667E+01
  0.7833E+01
  0.8000E+01
  0.8167E+01
  0.8333E+01
  0.8500E+01
  0.8667E+01
  0.8833E+01
  0.9000E+01
  0.9167E+01
  0.9333E+01
  0.9500E+01
  0.9667E+01
  0.9833E+01
  0.1000E+02
Y_COORDINATES    61 double
  0.0000E+00
  0.1667E+00
  0.3333E+00
  0.5000E+00
  0.6667E+00
  0.8333E+00
  0.1000E+01
  0.1167E+01
  0.1333E+01
  0.1500E+01
  0.1667E+01
  0.1833E+01
  0.2000E+01
  0.2167E+01
  0.2333E+01
  0.2500E+01
  0.2667E+01
  0.2833E+01
  0.3000E+01
  0.3167E+01
  0.3333E+01
  0.3500E+01
  0.3667E+01
  0.3833E+01
  0.4000E+01
  0.4167E+01
  0.4333E+01
  0.4500E+01
  0.4667E+01
  0.4833E+01
  0.5000E+01
  0.5167E+01
  0.5333E+01
  0.5500E+01
  0.5667E+01
  0.5833E+01
  0.6000E+01
  0.6167E+01
  0.6333E+01
  0.6500E+01
  0.6667E+01
  0.6833E+01
  0.7000E+01
  0.7167E+01
  0.7333E+01
  0.7500E+01
  0.7667E+01
  0.7833E+01
  0.8000E+01
  0.8167E+01
  0.8333E+01
  0.8500E+01
  0.8667E+01
  0.8833E+01
  0.9000E+01
  0.9167E+01
  0.9333E+01
  0.9500E+01
  0.9667E+01
  0.9833E+01
  0.1000E+02
Z_COORDINATES 1 double
0
CELL_DATA                 3600
FIELD FieldData 4
density 1                 3600 double
  0.1162E+01
  0.1162E+01
  0.1162E+01
  0.1162E+01
  0.1162E+01
  0.1162E+01
  0.1162E+01
  0.1162E+01
  0.1162E+01
  0.1161E+01
  0.1160E+01
  0.1155E+01
  0.1143E+01
  0.1121E+01
  0.1087E+01
  0.1045E+01
  0.1000E+01
  0.9541E+00
  0.9088E+00
  0.8650E+00
  0.8230E+00
  0.7829E+00
  0.7451E+00
  0.7096E+00
  0.6762E+00
  0.6450E+00
  0.6159E+00
  0.5887E+00
  0.5635E+00
  0.5403E+00
  0.5192E+00
  0.5005E+00
  0.4841E+00
  0.4726E+00
  0.4658E+00
  0.4662E+00
  0.4713E+00
  0.4790E+00
  0.4881E+00
  0.4984E+00
  0.5087E+00
  0.5187E+00
  0.5243E+00
  0.5229E+00
  0.5104E+00
  0.4913E+00
  0.4814E+00
  0.4828E+00
  0.4928E+00
  0.5070E+00
  0.5245E+00
  0.5433E+00
  0.5434E+00
  0.4738E+00
  0.3256E+00
  0.2319E+00
  0.2022E+00
  0.2000E+00
  0.2000E+00
  0.2000E+00
  0.1159E+01
  0.1159E+01
  0.1159E+01
  0.1159E+01
  0.1159E+01
  0.1159E+01
  0.1159E+01
  0.1159E+01
  0.1158E+01
  0.1158E+01
  0.1156E+01
  0.1152E+01
  0.1140E+01
  0.1118E+01
  0.1084E+01
  0.1043E+01
  0.9974E+00
  0.9515E+00
  0.9063E+00
  0.8625E+00
  0.8205E+00
  0.7805E+00
  0.7426E+00
  0.7071E+00
  0.6737E+00
  0.6425E+00
  0.6133E+00
  0.5861E+00
  0.5608E+00
  0.5375E+00
  0.5164E+00
  0.4975E+00
  0.4811E+00
  0.4692E+00
  0.4622E+00
  0.4623E+00
  0.4669E+00
  0.4744E+00
  0.4832E+00
  0.4932E+00
  0.5034E+00
  0.5137E+00
  0.5203E+00
  0.5194E+00
  0.5084E+00
  0.4902E+00
  0.4806E+00
  0.4821E+00
  0.4921E+00
  0.5062E+00
  0.5235E+00
  0.5411E+00
  0.5399E+00
  0.4669E+00
  0.3208E+00
  0.2302E+00
  0.2020E+00
  0.2000E+00
  0.2000E+00
  0.2000E+00
  0.1152E+01
  0.1152E+01
  0.1152E+01
  0.1152E+01
  0.1152E+01
  0.1152E+01
  0.1152E+01
  0.1152E+01
  0.1151E+01
  0.1151E+01
  0.1150E+01
  0.1145E+01
  0.1133E+01
  0.1112E+01
  0.1078E+01
  0.1037E+01
  0.9919E+00
  0.9461E+00
  0.9010E+00
  0.8572E+00
  0.8152E+00
  0.7753E+00
  0.7374E+00
  0.7019E+00
  0.6684E+00
  0.6371E+00
  0.6079E+00
  0.5805E+00
  0.5551E+00
  0.5317E+00
  0.5103E+00
  0.4911E+00
  0.4746E+00
  0.4621E+00
  0.4544E+00
  0.4542E+00
  0.4581E+00
  0.4648E+00
  0.4730E+00
  0.4825E+00
  0.4927E+00
  0.5038E+00
  0.5124E+00
  0.5126E+00
  0.5039E+00
  0.4870E+00
  0.4779E+00
  0.4796E+00
  0.4900E+00
  0.5042E+00
  0.5213E+00
  0.5377E+00
  0.5346E+00
  0.4554E+00
  0.3125E+00
  0.2270E+00
  0.2017E+00
  0.2000E+00
  0.2000E+00
  0.2000E+00
  0.1140E+01
  0.1140E+01
  0.1140E+01
  0.1140E+01
  0.1140E+01
  0.1140E+01
  0.1140E+01
  0.1140E+01
  0.1140E+01
  0.1140E+01
  0.1139E+01
  0.1134E+01
  0.1123E+01
  0.1102E+01
  0.1069E+01
  0.1028E+01
  0.9831E+00
  0.9374E+00
  0.8924E+00
  0.8487E+00
  0.8068E+00
  0.7668E+00
  0.7289E+00
  0.6932E+00
  0.6597E+00
  0.6283E+00
  0.5988E+00
  0.5713E+00
  0.5456E+00
  0.5219E+00
  0.5002E+00
  0.4806E+00
  0.4637E+00
  0.4506E+00
  0.4419E+00
  0.4413E+00
  0.4441E+00
  0.4498E+00
  0.4573E+00
  0.4665E+00
  0.4771E+00
  0.4896E+00
  0.5013E+00
  0.5026E+00
  0.4960E+00
  0.4804E+00
  0.4723E+00
  0.4746E+00
  0.4860E+00
  0.5002E+00
  0.5172E+00
  0.5328E+00
  0.5267E+00
  0.4379E+00
  0.3005E+00
  0.2226E+00
  0.2013E+00
  0.2000E+00
  0.2000E+00
  0.2000E+00
  0.1124E+01
  0.1124E+01
  0.1124E+01
  0.1124E+01
  0.1124E+01
  0.1124E+01
  0.1124E+01
  0.1124E+01
  0.1124E+01
  0.1124E+01
  0.1122E+01
  0.1118E+01
  0.1107E+01
  0.1087E+01
  0.1055E+01
  0.1014E+01
  0.9697E+00
  0.9242E+00
  0.8794E+00
  0.8358E+00
  0.7939E+00
  0.7539E+00
  0.7159E+00
  0.6802E+00
  0.6465E+00
  0.6149E+00
  0.5852E+00
  0.5575E+00
  0.5315E+00
  0.5075E+00
  0.4854E+00
  0.4655E+00
  0.4482E+00
  0.4345E+00
  0.4248E+00
  0.4237E+00
  0.4252E+00
  0.4300E+00
  0.4371E+00
  0.4465E+00
  0.4584E+00
  0.4738E+00
  0.4886E+00
  0.4908E+00
  0.4852E+00
  0.4707E+00
  0.4644E+00
  0.4676E+00
  0.4798E+00
  0.4945E+00
  0.5121E+00
  0.5268E+00
  0.5154E+00
  0.4151E+00
  0.2861E+00
  0.2175E+00
  0.2008E+00
  0.2000E+00
  0.2000E+00
  0.2000E+00
  0.1101E+01
  0.1101E+01
  0.1101E+01
  0.1101E+01
  0.1101E+01
  0.1101E+01
  0.1101E+01
  0.1101E+01
  0.1100E+01
  0.1100E+01
  0.1099E+01
  0.1095E+01
  0.1085E+01
  0.1065E+01
  0.1034E+01
  0.9944E+00
  0.9504E+00
  0.9053E+00
  0.8607E+00
  0.8173E+00
  0.7755E+00
  0.7356E+00
  0.6977E+00
  0.6619E+00
  0.6282E+00
  0.5965E+00
  0.5667E+00
  0.5388E+00
  0.5128E+00
  0.4885E+00
  0.4663E+00
  0.4462E+00
  0.4287E+00
  0.4145E+00
  0.4044E+00
  0.4021E+00
  0.4032E+00
  0.4074E+00
  0.4147E+00
  0.4253E+00
  0.4400E+00
  0.4592E+00
  0.4768E+00
  0.4792E+00
  0.4736E+00
  0.4596E+00
  0.4552E+00
  0.4595E+00
  0.4726E+00
  0.4879E+00
  0.5067E+00
  0.5194E+00
  0.4997E+00
  0.3879E+00
  0.2704E+00
  0.2125E+00
  0.2005E+00
  0.2000E+00
  0.2000E+00
  0.2000E+00
  0.1069E+01
  0.1069E+01
  0.1069E+01
  0.1069E+01
  0.1069E+01
  0.1069E+01
  0.1069E+01
  0.1069E+01
  0.1069E+01
  0.1069E+01
  0.1068E+01
  0.1064E+01
  0.1055E+01
  0.1036E+01
  0.1006E+01
  0.9678E+00
  0.9247E+00
  0.8802E+00
  0.8360E+00
  0.7931E+00
  0.7516E+00
  0.7119E+00
  0.6743E+00
  0.6387E+00
  0.6052E+00
  0.5736E+00
  0.5440E+00
  0.5163E+00
  0.4903E+00
  0.4663E+00
  0.4441E+00
  0.4241E+00
  0.4067E+00
  0.3924E+00
  0.3821E+00
  0.3791E+00
  0.3800E+00
  0.3842E+00
  0.3926E+00
  0.4062E+00
  0.4256E+00
  0.4493E+00
  0.4687E+00
  0.4702E+00
  0.4624E+00
  0.4484E+00
  0.4458E+00
  0.4517E+00
  0.4655E+00
  0.4819E+00
  0.5018E+00
  0.5112E+00
  0.4785E+00
  0.3575E+00
  0.2545E+00
  0.2081E+00
  0.2003E+00
  0.2000E+00
  0.2000E+00
  0.2000E+00
  0.1031E+01
  0.1031E+01
  0.1031E+01
  0.1031E+01
  0.1031E+01
  0.1031E+01
  0.1031E+01
  0.1031E+01
  0.1031E+01
  0.1031E+01
  0.1030E+01
  0.1026E+01
  0.1018E+01
  0.1001E+01
  0.9723E+00
  0.9351E+00
  0.8930E+00
  0.8494E+00
  0.8061E+00
  0.7638E+00
  0.7230E+00
  0.6840E+00
  0.6469E+00
  0.6118E+00
  0.5788E+00
  0.5477E+00
  0.5186E+00
  0.4913E+00
  0.4659E+00
  0.4423E+00
  0.4206E+00
  0.4009E+00
  0.3838E+00
  0.3698E+00
  0.3591E+00
  0.3565E+00
  0.3575E+00
  0.3622E+00
  0.3737E+00
  0.3932E+00
  0.4212E+00
  0.4509E+00
  0.4654E+00
  0.4636E+00
  0.4513E+00
  0.4380E+00
  0.4373E+00
  0.4454E+00
  0.4598E+00
  0.4777E+00
  0.4979E+00
  0.5006E+00
  0.4493E+00
  0.3272E+00
  0.2395E+00
  0.2047E+00
  0.2001E+00
  0.2000E+00
  0.2000E+00
  0.2000E+00
  0.9873E+00
  0.9873E+00
  0.9873E+00
  0.9873E+00
  0.9873E+00
  0.9873E+00
  0.9873E+00
  0.9873E+00
  0.9873E+00
  0.9871E+00
  0.9862E+00
  0.9834E+00
  0.9759E+00
  0.9599E+00
  0.9334E+00
  0.8980E+00
  0.8573E+00
  0.8150E+00
  0.7728E+00
  0.7315E+00
  0.6917E+00
  0.6536E+00
  0.6173E+00
  0.5831E+00
  0.5509E+00
  0.5206E+00
  0.4923E+00
  0.4657E+00
  0.4410E+00
  0.4181E+00
  0.3970E+00
  0.3780E+00
  0.3614E+00
  0.3477E+00
  0.3367E+00
  0.3352E+00
  0.3367E+00
  0.3441E+00
  0.3635E+00
  0.3941E+00
  0.4271E+00
  0.4554E+00
  0.4610E+00
  0.4560E+00
  0.4401E+00
  0.4293E+00
  0.4307E+00
  0.4411E+00
  0.4560E+00
  0.4757E+00
  0.4932E+00
  0.4877E+00
  0.4123E+00
  0.2977E+00
  0.2262E+00
  0.2025E+00
  0.2001E+00
  0.2000E+00
  0.2000E+00
  0.2000E+00
  0.9414E+00
  0.9414E+00
  0.9414E+00
  0.9414E+00
  0.9414E+00
  0.9414E+00
  0.9414E+00
  0.9414E+00
  0.9414E+00
  0.9412E+00
  0.9405E+00
  0.9381E+00
  0.9314E+00
  0.9170E+00
  0.8925E+00
  0.8589E+00
  0.8200E+00
  0.7791E+00
  0.7382E+00
  0.6982E+00
  0.6596E+00
  0.6226E+00
  0.5875E+00
  0.5543E+00
  0.5231E+00
  0.4938E+00
  0.4663E+00
  0.4407E+00
  0.4168E+00
  0.3947E+00
  0.3744E+00
  0.3561E+00
  0.3398E+00
  0.3267E+00
  0.3164E+00
  0.3158E+00
  0.3195E+00
  0.3358E+00
  0.3662E+00
  0.4028E+00
  0.4372E+00
  0.4569E+00
  0.4566E+00
  0.4464E+00
  0.4291E+00
  0.4228E+00
  0.4265E+00
  0.4384E+00
  0.4547E+00
  0.4754E+00
  0.4871E+00
  0.4671E+00
  0.3709E+00
  0.2707E+00
  0.2157E+00
  0.2011E+00
  0.2000E+00
  0.2000E+00
  0.2000E+00
  0.2000E+00
  0.8956E+00
  0.8956E+00
  0.8956E+00
  0.8956E+00
  0.8956E+00
  0.8956E+00
  0.8956E+00
  0.8956E+00
  0.8955E+00
  0.8954E+00
  0.8948E+00
  0.8928E+00
  0.8870E+00
  0.8741E+00
  0.8515E+00
  0.8200E+00
  0.7829E+00
  0.7436E+00
  0.7042E+00
  0.6655E+00
  0.6282E+00
  0.5925E+00
  0.5585E+00
  0.5265E+00
  0.4964E+00
  0.4681E+00
  0.4416E+00
  0.4169E+00
  0.3940E+00
  0.3727E+00
  0.3531E+00
  0.3355E+00
  0.3197E+00
  0.3066E+00
  0.2989E+00
  0.2999E+00
  0.3128E+00
  0.3409E+00
  0.3788E+00
  0.4161E+00
  0.4462E+00
  0.4542E+00
  0.4506E+00
  0.4352E+00
  0.4193E+00
  0.4179E+00
  0.4246E+00
  0.4382E+00
  0.4561E+00
  0.4753E+00
  0.4774E+00
  0.4342E+00
  0.3300E+00
  0.2474E+00
  0.2082E+00
  0.2005E+00
  0.2000E+00
  0.2000E+00
  0.2000E+00
  0.2000E+00
  0.8517E+00
  0.8517E+00
  0.8517E+00
  0.8517E+00
  0.8517E+00
  0.8517E+00
  0.8517E+00
  0.8516E+00
  0.8516E+00
  0.8515E+00
  0.8510E+00
  0.8493E+00
  0.8443E+00
  0.8329E+00
  0.8123E+00
  0.7828E+00
  0.7475E+00
  0.7098E+00
  0.6718E+00
  0.6346E+00
  0.5986E+00
  0.5641E+00
  0.5313E+00
  0.5004E+00
  0.4713E+00
  0.4441E+00
  0.4186E+00
  0.3948E+00
  0.3727E+00
  0.3522E+00
  0.3334E+00
  0.3161E+00
  0.3010E+00
  0.2876E+00
  0.2861E+00
  0.2952E+00
  0.3199E+00
  0.3574E+00
  0.3971E+00
  0.4295E+00
  0.4495E+00
  0.4503E+00
  0.4415E+00
  0.4225E+00
  0.4128E+00
  0.4151E+00
  0.4254E+00
  0.4403E+00
  0.4596E+00
  0.4721E+00
  0.4618E+00
  0.3898E+00
  0.2932E+00
  0.2286E+00
  0.2038E+00
  0.2002E+00
  0.2000E+00
  0.2000E+00
  0.2000E+00
  0.2000E+00
  0.8107E+00
  0.8107E+00
  0.8107E+00
  0.8107E+00
  0.8107E+00
  0.8107E+00
  0.8107E+00
  0.8107E+00
  0.8107E+00
  0.8106E+00
  0.8102E+00
  0.8088E+00
  0.8045E+00
  0.7944E+00
  0.7756E+00
  0.7482E+00
  0.7147E+00
  0.6785E+00
  0.6420E+00
  0.6061E+00
  0.5713E+00
  0.5379E+00
  0.5063E+00
  0.4764E+00
  0.4483E+00
  0.4220E+00
  0.3974E+00
  0.3745E+00
  0.3531E+00
  0.3334E+00
  0.3150E+00
  0.2987E+00
  0.2817E+00
  0.2766E+00
  0.2830E+00
  0.3032E+00
  0.3382E+00
  0.3797E+00
  0.4150E+00
  0.4414E+00
  0.4487E+00
  0.4449E+00
  0.4281E+00
  0.4113E+00
  0.4098E+00
  0.4157E+00
  0.4286E+00
  0.4454E+00
  0.4614E+00
  0.4640E+00
  0.4318E+00
  0.3430E+00
  0.2618E+00
  0.2151E+00
  0.2015E+00
  0.2001E+00
  0.2000E+00
  0.2000E+00
  0.2000E+00
  0.2000E+00
  0.7733E+00
  0.7733E+00
  0.7733E+00
  0.7733E+00
  0.7733E+00
  0.7733E+00
  0.7733E+00
  0.7733E+00
  0.7733E+00
  0.7732E+00
  0.7729E+00
  0.7717E+00
  0.7681E+00
  0.7592E+00
  0.7422E+00
  0.7167E+00
  0.6849E+00
  0.6502E+00
  0.6150E+00
  0.5802E+00
  0.5466E+00
  0.5143E+00
  0.4836E+00
  0.4547E+00
  0.4275E+00
  0.4021E+00
  0.3783E+00
  0.3561E+00
  0.3355E+00
  0.3161E+00
  0.2987E+00
  0.2804E+00
  0.2719E+00
  0.2759E+00
  0.2922E+00
  0.3235E+00
  0.3621E+00
  0.3986E+00
  0.4278E+00
  0.4445E+00
  0.4444E+00
  0.4328E+00
  0.4130E+00
  0.4060E+00
  0.4093E+00
  0.4200E+00
  0.4346E+00
  0.4504E+00
  0.4588E+00
  0.4484E+00
  0.3866E+00
  0.3007E+00
  0.2368E+00
  0.2069E+00
  0.2005E+00
  0.2000E+00
  0.2000E+00
  0.2000E+00
  0.2000E+00
  0.2000E+00
  0.7404E+00
  0.7404E+00
  0.7404E+00
  0.7404E+00
  0.7404E+00
  0.7404E+00
  0.7404E+00
  0.7404E+00
  0.7404E+00
  0.7403E+00
  0.7401E+00
  0.7391E+00
  0.7360E+00
  0.7282E+00
  0.7129E+00
  0.6891E+00
  0.6589E+00
  0.6256E+00
  0.5914E+00
  0.5577E+00
  0.5251E+00
  0.4937E+00
  0.4640E+00
  0.4359E+00
  0.4095E+00
  0.3847E+00
  0.3616E+00
  0.3398E+00
  0.3197E+00
  0.3010E+00
  0.2815E+00
  0.2720E+00
  0.2737E+00
  0.2854E+00
  0.3152E+00
  0.3534E+00
  0.3888E+00
  0.4158E+00
  0.4350E+00
  0.4404E+00
  0.4341E+00
  0.4156E+00
  0.4043E+00
  0.4054E+00
  0.4134E+00
  0.4268E+00
  0.4411E+00
  0.4514E+00
  0.4501E+00
  0.4157E+00
  0.3380E+00
  0.2650E+00
  0.2191E+00
  0.2026E+00
  0.2001E+00
  0.2000E+00
  0.2000E+00
  0.2000E+00
  0.2000E+00
  0.2000E+00
  0.7132E+00
  0.7132E+00
  0.7132E+00
  0.7132E+00
  0.7132E+00
  0.7132E+00
  0.7132E+00
  0.7132E+00
  0.7132E+00
  0.7131E+00
  0.7129E+00
  0.7121E+00
  0.7095E+00
  0.7026E+00
  0.6888E+00
  0.6666E+00
  0.6379E+00
  0.6058E+00
  0.5726E+00
  0.5398E+00
  0.5079E+00
  0.4772E+00
  0.4481E+00
  0.4205E+00
  0.3947E+00
  0.3705E+00
  0.3478E+00
  0.3267E+00
  0.3066E+00
  0.2876E+00
  0.2768E+00
  0.2764E+00
  0.2852E+00
  0.3067E+00
  0.3418E+00
  0.3811E+00
  0.4122E+00
  0.4339E+00
  0.4385E+00
  0.4340E+00
  0.4176E+00
  0.4040E+00
  0.4034E+00
  0.4088E+00
  0.4210E+00
  0.4343E+00
  0.4443E+00
  0.4470E+00
  0.4299E+00
  0.3682E+00
  0.2942E+00
  0.2373E+00
  0.2083E+00
  0.2008E+00
  0.2000E+00
  0.2000E+00
  0.2000E+00
  0.2000E+00
  0.2000E+00
  0.2000E+00
  0.6944E+00
  0.6944E+00
  0.6944E+00
  0.6944E+00
  0.6944E+00
  0.6944E+00
  0.6944E+00
  0.6944E+00
  0.6944E+00
  0.6943E+00
  0.6942E+00
  0.6935E+00
  0.6913E+00
  0.6852E+00
  0.6723E+00
  0.6510E+00
  0.6231E+00
  0.5919E+00
  0.5594E+00
  0.5272E+00
  0.4958E+00
  0.4656E+00
  0.4369E+00
  0.4098E+00
  0.3840E+00
  0.3596E+00
  0.3368E+00
  0.3164E+00
  0.2990E+00
  0.2859E+00
  0.2831E+00
  0.2918E+00
  0.3153E+00
  0.3417E+00
  0.3695E+00
  0.3991E+00
  0.4253E+00
  0.4398E+00
  0.4378E+00
  0.4229E+00
  0.4066E+00
  0.4035E+00
  0.4065E+00
  0.4169E+00
  0.4286E+00
  0.4385E+00
  0.4428E+00
  0.4344E+00
  0.3898E+00
  0.3202E+00
  0.2581E+00
  0.2183E+00
  0.2030E+00
  0.2002E+00
  0.2000E+00
  0.2000E+00
  0.2000E+00
  0.2000E+00
  0.2000E+00
  0.2000E+00
  0.6861E+00
  0.6861E+00
  0.6861E+00
  0.6861E+00
  0.6861E+00
  0.6861E+00
  0.6861E+00
  0.6861E+00
  0.6861E+00
  0.6861E+00
  0.6860E+00
  0.6854E+00
  0.6834E+00
  0.6781E+00
  0.6669E+00
  0.6477E+00
  0.6212E+00
  0.5902E+00
  0.5577E+00
  0.5252E+00
  0.4935E+00
  0.4629E+00
  0.4337E+00
  0.4061E+00
  0.3804E+00
  0.3569E+00
  0.3353E+00
  0.3158E+00
  0.2999E+00
  0.2953E+00
  0.3030E+00
  0.3236E+00
  0.3534E+00
  0.3809E+00
  0.3991E+00
  0.4164E+00
  0.4312E+00
  0.4351E+00
  0.4275E+00
  0.4120E+00
  0.4063E+00
  0.4078E+00
  0.4148E+00
  0.4240E+00
  0.4328E+00
  0.4381E+00
  0.4345E+00
  0.4031E+00
  0.3411E+00
  0.2781E+00
  0.2313E+00
  0.2075E+00
  0.2009E+00
  0.2001E+00
  0.2000E+00
  0.2000E+00
  0.2000E+00
  0.2000E+00
  0.2000E+00
  0.2000E+00
  0.6849E+00
  0.6849E+00
  0.6849E+00
  0.6849E+00
  0.6849E+00
  0.6849E+00
  0.6849E+00
  0.6849E+00
  0.6849E+00
  0.6849E+00
  0.6848E+00
  0.6844E+00
  0.6828E+00
  0.6780E+00
  0.6672E+00
  0.6485E+00
  0.6223E+00
  0.5916E+00
  0.5591E+00
  0.5265E+00
  0.4946E+00
  0.4638E+00
  0.4345E+00
  0.4069E+00
  0.3812E+00
  0.3578E+00
  0.3368E+00
  0.3196E+00
  0.3128E+00
  0.3197E+00
  0.3382E+00
  0.3621E+00
  0.3889E+00
  0.4121E+00
  0.4252E+00
  0.4313E+00
  0.4322E+00
  0.4265E+00
  0.4141E+00
  0.4097E+00
  0.4107E+00
  0.4155E+00
  0.4219E+00
  0.4285E+00
  0.4335E+00
  0.4322E+00
  0.4096E+00
  0.3563E+00
  0.2953E+00
  0.2448E+00
  0.2141E+00
  0.2025E+00
  0.2002E+00
  0.2000E+00
  0.2000E+00
  0.2000E+00
  0.2000E+00
  0.2000E+00
  0.2000E+00
  0.2000E+00
  0.6854E+00
  0.6854E+00
  0.6854E+00
  0.6854E+00
  0.6854E+00
  0.6854E+00
  0.6854E+00
  0.6854E+00
  0.6854E+00
  0.6854E+00
  0.6853E+00
  0.6849E+00
  0.6834E+00
  0.6790E+00
  0.6693E+00
  0.6516E+00
  0.6263E+00
  0.5959E+00
  0.5634E+00
  0.5307E+00
  0.4985E+00
  0.4675E+00
  0.4381E+00
  0.4106E+00
  0.3853E+00
  0.3625E+00
  0.3442E+00
  0.3357E+00
  0.3408E+00
  0.3574E+00
  0.3795E+00
  0.3986E+00
  0.4159E+00
  0.4343E+00
  0.4396E+00
  0.4348E+00
  0.4265E+00
  0.4149E+00
  0.4104E+00
  0.4117E+00
  0.4166E+00
  0.4217E+00
  0.4264E+00
  0.4305E+00
  0.4299E+00
  0.4119E+00
  0.3657E+00
  0.3087E+00
  0.2574E+00
  0.2218E+00
  0.2051E+00
  0.2007E+00
  0.2001E+00
  0.2000E+00
  0.2000E+00
  0.2000E+00
  0.2000E+00
  0.2000E+00
  0.2000E+00
  0.2000E+00
  0.6884E+00
  0.6884E+00
  0.6884E+00
  0.6884E+00
  0.6884E+00
  0.6884E+00
  0.6884E+00
  0.6884E+00
  0.6884E+00
  0.6884E+00
  0.6883E+00
  0.6880E+00
  0.6867E+00
  0.6831E+00
  0.6742E+00
  0.6575E+00
  0.6329E+00
  0.6027E+00
  0.5701E+00
  0.5370E+00
  0.5046E+00
  0.4735E+00
  0.4442E+00
  0.4174E+00
  0.3934E+00
  0.3739E+00
  0.3634E+00
  0.3663E+00
  0.3787E+00
  0.3970E+00
  0.4150E+00
  0.4278E+00
  0.4352E+00
  0.4384E+00
  0.4377E+00
  0.4275E+00
  0.4142E+00
  0.4103E+00
  0.4116E+00
  0.4160E+00
  0.4209E+00
  0.4253E+00
  0.4289E+00
  0.4285E+00
  0.4131E+00
  0.3712E+00
  0.3180E+00
  0.2677E+00
  0.2297E+00
  0.2086E+00
  0.2015E+00
  0.2002E+00
  0.2000E+00
  0.2000E+00
  0.2000E+00
  0.2000E+00
  0.2000E+00
  0.2000E+00
  0.2000E+00
  0.2000E+00
  0.6944E+00
  0.6944E+00
  0.6944E+00
  0.6944E+00
  0.6944E+00
  0.6944E+00
  0.6944E+00
  0.6944E+00
  0.6944E+00
  0.6944E+00
  0.6943E+00
  0.6941E+00
  0.6930E+00
  0.6897E+00
  0.6815E+00
  0.6655E+00
  0.6412E+00
  0.6110E+00
  0.5779E+00
  0.5445E+00
  0.5121E+00
  0.4813E+00
  0.4528E+00
  0.4276E+00
  0.4069E+00
  0.3933E+00
  0.3943E+00
  0.4027E+00
  0.4160E+00
  0.4296E+00
  0.4411E+00
  0.4447E+00
  0.4402E+00
  0.4340E+00
  0.4232E+00
  0.4120E+00
  0.4095E+00
  0.4116E+00
  0.4160E+00
  0.4200E+00
  0.4238E+00
  0.4273E+00
  0.4274E+00
  0.4138E+00
  0.3745E+00
  0.3242E+00
  0.2754E+00
  0.2366E+00
  0.2126E+00
  0.2027E+00
  0.2003E+00
  0.2000E+00
  0.2000E+00
  0.2000E+00
  0.2000E+00
  0.2000E+00
  0.2000E+00
  0.2000E+00
  0.2000E+00
  0.2000E+00
  0.7005E+00
  0.7005E+00
  0.7005E+00
  0.7005E+00
  0.7005E+00
  0.7005E+00
  0.7005E+00
  0.7005E+00
  0.7005E+00
  0.7005E+00
  0.7004E+00
  0.7002E+00
  0.6992E+00
  0.6961E+00
  0.6884E+00
  0.6731E+00
  0.6492E+00
  0.6190E+00
  0.5858E+00
  0.5524E+00
  0.5203E+00
  0.4905E+00
  0.4639E+00
  0.4419E+00
  0.4262E+00
  0.4213E+00
  0.4271E+00
  0.4371E+00
  0.4461E+00
  0.4496E+00
  0.4486E+00
  0.4445E+00
  0.4342E+00
  0.4176E+00
  0.4067E+00
  0.4064E+00
  0.4105E+00
  0.4165E+00
  0.4209E+00
  0.4238E+00
  0.4262E+00
  0.4261E+00
  0.4133E+00
  0.3752E+00
  0.3274E+00
  0.2807E+00
  0.2421E+00
  0.2164E+00
  0.2042E+00
  0.2007E+00
  0.2001E+00
  0.2000E+00
  0.2000E+00
  0.2000E+00
  0.2000E+00
  0.2000E+00
  0.2000E+00
  0.2000E+00
  0.2000E+00
  0.2000E+00
  0.7036E+00
  0.7036E+00
  0.7036E+00
  0.7036E+00
  0.7036E+00
  0.7036E+00
  0.7036E+00
  0.7036E+00
  0.7036E+00
  0.7036E+00
  0.7035E+00
  0.7033E+00
  0.7025E+00
  0.6998E+00
  0.6927E+00
  0.6783E+00
  0.6553E+00
  0.6257E+00
  0.5931E+00
  0.5605E+00
  0.5297E+00
  0.5020E+00
  0.4788E+00
  0.4609E+00
  0.4496E+00
  0.4509E+00
  0.4554E+00
  0.4569E+00
  0.4543E+00
  0.4504E+00
  0.4449E+00
  0.4326E+00
  0.4155E+00
  0.4040E+00
  0.4037E+00
  0.4077E+00
  0.4156E+00
  0.4218E+00
  0.4254E+00
  0.4273E+00
  0.4261E+00
  0.4126E+00
  0.3749E+00
  0.3279E+00
  0.2832E+00
  0.2460E+00
  0.2196E+00
  0.2058E+00
  0.2011E+00
  0.2001E+00
  0.2000E+00
  0.2000E+00
  0.2000E+00
  0.2000E+00
  0.2000E+00
  0.2000E+00
  0.2000E+00
  0.2000E+00
  0.2000E+00
  0.2000E+00
  0.7031E+00
  0.7031E+00
  0.7031E+00
  0.7031E+00
  0.7031E+00
  0.7031E+00
  0.7031E+00
  0.7031E+00
  0.7031E+00
  0.7031E+00
  0.7031E+00
  0.7029E+00
  0.7021E+00
  0.6995E+00
  0.6926E+00
  0.6785E+00
  0.6560E+00
  0.6272E+00
  0.5958E+00
  0.5652E+00
  0.5371E+00
  0.5130E+00
  0.4934E+00
  0.4784E+00
  0.4691E+00
  0.4654E+00
  0.4607E+00
  0.4566E+00
  0.4506E+00
  0.4414E+00
  0.4281E+00
  0.4133E+00
  0.4041E+00
  0.4034E+00
  0.4066E+00
  0.4150E+00
  0.4220E+00
  0.4265E+00
  0.4289E+00
  0.4274E+00
  0.4133E+00
  0.3749E+00
  0.3277E+00
  0.2835E+00
  0.2479E+00
  0.2220E+00
  0.2072E+00
  0.2015E+00
  0.2002E+00
  0.2000E+00
  0.2000E+00
  0.2000E+00
  0.2000E+00
  0.2000E+00
  0.2000E+00
  0.2000E+00
  0.2000E+00
  0.2000E+00
  0.2000E+00
  0.2000E+00
  0.6958E+00
  0.6958E+00
  0.6958E+00
  0.6958E+00
  0.6958E+00
  0.6958E+00
  0.6958E+00
  0.6958E+00
  0.6958E+00
  0.6958E+00
  0.6958E+00
  0.6956E+00
  0.6948E+00
  0.6924E+00
  0.6858E+00
  0.6723E+00
  0.6507E+00
  0.6229E+00
  0.5927E+00
  0.5634E+00
  0.5369E+00
  0.5141E+00
  0.4954E+00
  0.4808E+00
  0.4706E+00
  0.4636E+00
  0.4560E+00
  0.4464E+00
  0.4351E+00
  0.4225E+00
  0.4115E+00
  0.4063E+00
  0.4052E+00
  0.4087E+00
  0.4169E+00
  0.4241E+00
  0.4285E+00
  0.4304E+00
  0.4285E+00
  0.4138E+00
  0.3752E+00
  0.3279E+00
  0.2835E+00
  0.2480E+00
  0.2230E+00
  0.2083E+00
  0.2020E+00
  0.2003E+00
  0.2000E+00
  0.2000E+00
  0.2000E+00
  0.2000E+00
  0.2000E+00
  0.2000E+00
  0.2000E+00
  0.2000E+00
  0.2000E+00
  0.2000E+00
  0.2000E+00
  0.2000E+00
  0.6679E+00
  0.6679E+00
  0.6679E+00
  0.6679E+00
  0.6679E+00
  0.6679E+00
  0.6679E+00
  0.6679E+00
  0.6679E+00
  0.6679E+00
  0.6679E+00
  0.6677E+00
  0.6669E+00
  0.6645E+00
  0.6583E+00
  0.6457E+00
  0.6259E+00
  0.6011E+00
  0.5746E+00
  0.5494E+00
  0.5268E+00
  0.5069E+00
  0.4896E+00
  0.4750E+00
  0.4628E+00
  0.4513E+00
  0.4401E+00
  0.4290E+00
  0.4193E+00
  0.4128E+00
  0.4098E+00
  0.4094E+00
  0.4133E+00
  0.4210E+00
  0.4286E+00
  0.4327E+00
  0.4336E+00
  0.4299E+00
  0.4130E+00
  0.3745E+00
  0.3274E+00
  0.2832E+00
  0.2479E+00
  0.2230E+00
  0.2087E+00
  0.2023E+00
  0.2004E+00
  0.2001E+00
  0.2000E+00
  0.2000E+00
  0.2000E+00
  0.2000E+00
  0.2000E+00
  0.2000E+00
  0.2000E+00
  0.2000E+00
  0.2000E+00
  0.2000E+00
  0.2000E+00
  0.2000E+00
  0.6309E+00
  0.6309E+00
  0.6309E+00
  0.6309E+00
  0.6309E+00
  0.6309E+00
  0.6309E+00
  0.6309E+00
  0.6309E+00
  0.6309E+00
  0.6308E+00
  0.6306E+00
  0.6299E+00
  0.6275E+00
  0.6216E+00
  0.6101E+00
  0.5924E+00
  0.5709E+00
  0.5487E+00
  0.5277E+00
  0.5084E+00
  0.4908E+00
  0.4750E+00
  0.4610E+00
  0.4488E+00
  0.4380E+00
  0.4293E+00
  0.4227E+00
  0.4178E+00
  0.4151E+00
  0.4158E+00
  0.4198E+00
  0.4268E+00
  0.4343E+00
  0.4384E+00
  0.4381E+00
  0.4324E+00
  0.4117E+00
  0.3712E+00
  0.3241E+00
  0.2807E+00
  0.2460E+00
  0.2220E+00
  0.2083E+00
  0.2023E+00
  0.2005E+00
  0.2001E+00
  0.2000E+00
  0.2000E+00
  0.2000E+00
  0.2000E+00
  0.2000E+00
  0.2000E+00
  0.2000E+00
  0.2000E+00
  0.2000E+00
  0.2000E+00
  0.2000E+00
  0.2000E+00
  0.2000E+00
  0.6017E+00
  0.6017E+00
  0.6017E+00
  0.6017E+00
  0.6017E+00
  0.6017E+00
  0.6017E+00
  0.6017E+00
  0.6017E+00
  0.6017E+00
  0.6017E+00
  0.6015E+00
  0.6007E+00
  0.5984E+00
  0.5928E+00
  0.5822E+00
  0.5666E+00
  0.5487E+00
  0.5307E+00
  0.5134E+00
  0.4971E+00
  0.4820E+00
  0.4684E+00
  0.4566E+00
  0.4462E+00
  0.4373E+00
  0.4306E+00
  0.4264E+00
  0.4246E+00
  0.4254E+00
  0.4285E+00
  0.4347E+00
  0.4412E+00
  0.4445E+00
  0.4426E+00
  0.4346E+00
  0.4096E+00
  0.3657E+00
  0.3180E+00
  0.2754E+00
  0.2421E+00
  0.2196E+00
  0.2072E+00
  0.2020E+00
  0.2004E+00
  0.2001E+00
  0.2000E+00
  0.2000E+00
  0.2000E+00
  0.2000E+00
  0.2000E+00
  0.2000E+00
  0.2000E+00
  0.2000E+00
  0.2000E+00
  0.2000E+00
  0.2000E+00
  0.2000E+00
  0.2000E+00
  0.2000E+00
  0.5922E+00
  0.5922E+00
  0.5922E+00
  0.5922E+00
  0.5922E+00
  0.5922E+00
  0.5922E+00
  0.5922E+00
  0.5922E+00
  0.5922E+00
  0.5922E+00
  0.5920E+00
  0.5913E+00
  0.5892E+00
  0.5841E+00
  0.5748E+00
  0.5614E+00
  0.5455E+00
  0.5292E+00
  0.5131E+00
  0.4979E+00
  0.4838E+00
  0.4714E+00
  0.4609E+00
  0.4520E+00
  0.4455E+00
  0.4411E+00
  0.4383E+00
  0.4381E+00
  0.4403E+00
  0.4455E+00
  0.4501E+00
  0.4513E+00
  0.4469E+00
  0.4345E+00
  0.4030E+00
  0.3564E+00
  0.3087E+00
  0.2677E+00
  0.2366E+00
  0.2164E+00
  0.2057E+00
  0.2015E+00
  0.2003E+00
  0.2001E+00
  0.2000E+00
  0.2000E+00
  0.2000E+00
  0.2000E+00
  0.2000E+00
  0.2000E+00
  0.2000E+00
  0.2000E+00
  0.2000E+00
  0.2000E+00
  0.2000E+00
  0.2000E+00
  0.2000E+00
  0.2000E+00
  0.2000E+00
  0.5920E+00
  0.5920E+00
  0.5920E+00
  0.5920E+00
  0.5920E+00
  0.5920E+00
  0.5920E+00
  0.5920E+00
  0.5920E+00
  0.5919E+00
  0.5919E+00
  0.5917E+00
  0.5910E+00
  0.5890E+00
  0.5841E+00
  0.5752E+00
  0.5627E+00
  0.5484E+00
  0.5341E+00
  0.5200E+00
  0.5067E+00
  0.4944E+00
  0.4834E+00
  0.4738E+00
  0.4659E+00
  0.4599E+00
  0.4560E+00
  0.4547E+00
  0.4561E+00
  0.4593E+00
  0.4616E+00
  0.4588E+00
  0.4502E+00
  0.4299E+00
  0.3897E+00
  0.3412E+00
  0.2953E+00
  0.2574E+00
  0.2297E+00
  0.2126E+00
  0.2042E+00
  0.2011E+00
  0.2002E+00
  0.2000E+00
  0.2000E+00
  0.2000E+00
  0.2000E+00
  0.2000E+00
  0.2000E+00
  0.2000E+00
  0.2000E+00
  0.2000E+00
  0.2000E+00
  0.2000E+00
  0.2000E+00
  0.2000E+00
  0.2000E+00
  0.2000E+00
  0.2000E+00
  0.2000E+00
  0.5933E+00
  0.5933E+00
  0.5933E+00
  0.5933E+00
  0.5933E+00
  0.5933E+00
  0.5933E+00
  0.5933E+00
  0.5933E+00
  0.5932E+00
  0.5932E+00
  0.5930E+00
  0.5924E+00
  0.5906E+00
  0.5863E+00
  0.5787E+00
  0.5680E+00
  0.5558E+00
  0.5432E+00
  0.5308E+00
  0.5188E+00
  0.5077E+00
  0.4977E+00
  0.4891E+00
  0.4822E+00
  0.4778E+00
  0.4757E+00
  0.4754E+00
  0.4752E+00
  0.4722E+00
  0.4639E+00
  0.4485E+00
  0.4156E+00
  0.3681E+00
  0.3202E+00
  0.2781E+00
  0.2448E+00
  0.2218E+00
  0.2086E+00
  0.2027E+00
  0.2007E+00
  0.2001E+00
  0.2000E+00
  0.2000E+00
  0.2000E+00
  0.2000E+00
  0.2000E+00
  0.2000E+00
  0.2000E+00
  0.2000E+00
  0.2000E+00
  0.2000E+00
  0.2000E+00
  0.2000E+00
  0.2000E+00
  0.2000E+00
  0.2000E+00
  0.2000E+00
  0.2000E+00
  0.2000E+00
  0.5987E+00
  0.5987E+00
  0.5987E+00
  0.5987E+00
  0.5987E+00
  0.5987E+00
  0.5987E+00
  0.5987E+00
  0.5987E+00
  0.5987E+00
  0.5987E+00
  0.5985E+00
  0.5980E+00
  0.5965E+00
  0.5929E+00
  0.5865E+00
  0.5775E+00
  0.5669E+00
  0.5556E+00
  0.5443E+00
  0.5335E+00
  0.5235E+00
  0.5148E+00
  0.5075E+00
  0.5021E+00
  0.4980E+00
  0.4931E+00
  0.4871E+00
  0.4775E+00
  0.4619E+00
  0.4318E+00
  0.3866E+00
  0.3380E+00
  0.2942E+00
  0.2581E+00
  0.2313E+00
  0.2141E+00
  0.2051E+00
  0.2015E+00
  0.2003E+00
  0.2001E+00
  0.2000E+00
  0.2000E+00
  0.2000E+00
  0.2000E+00
  0.2000E+00
  0.2000E+00
  0.2000E+00
  0.2000E+00
  0.2000E+00
  0.2000E+00
  0.2000E+00
  0.2000E+00
  0.2000E+00
  0.2000E+00
  0.2000E+00
  0.2000E+00
  0.2000E+00
  0.2000E+00
  0.2000E+00
  0.6060E+00
  0.6060E+00
  0.6060E+00
  0.6060E+00
  0.6060E+00
  0.6060E+00
  0.6060E+00
  0.6060E+00
  0.6060E+00
  0.6060E+00
  0.6060E+00
  0.6059E+00
  0.6055E+00
  0.6042E+00
  0.6012E+00
  0.5960E+00
  0.5884E+00
  0.5791E+00
  0.5688E+00
  0.5581E+00
  0.5476E+00
  0.5380E+00
  0.5291E+00
  0.5200E+00
  0.5115E+00
  0.5006E+00
  0.4876E+00
  0.4671E+00
  0.4341E+00
  0.3897E+00
  0.3430E+00
  0.3007E+00
  0.2650E+00
  0.2373E+00
  0.2183E+00
  0.2075E+00
  0.2025E+00
  0.2007E+00
  0.2002E+00
  0.2000E+00
  0.2000E+00
  0.2000E+00
  0.2000E+00
  0.2000E+00
  0.2000E+00
  0.2000E+00
  0.2000E+00
  0.2000E+00
  0.2000E+00
  0.2000E+00
  0.2000E+00
  0.2000E+00
  0.2000E+00
  0.2000E+00
  0.2000E+00
  0.2000E+00
  0.2000E+00
  0.2000E+00
  0.2000E+00
  0.2000E+00
  0.6022E+00
  0.6022E+00
  0.6022E+00
  0.6022E+00
  0.6022E+00
  0.6022E+00
  0.6022E+00
  0.6022E+00
  0.6022E+00
  0.6022E+00
  0.6022E+00
  0.6021E+00
  0.6017E+00
  0.6005E+00
  0.5979E+00
  0.5932E+00
  0.5862E+00
  0.5772E+00
  0.5668E+00
  0.5555E+00
  0.5436E+00
  0.5312E+00
  0.5173E+00
  0.5003E+00
  0.4787E+00
  0.4494E+00
  0.4124E+00
  0.3708E+00
  0.3300E+00
  0.2932E+00
  0.2618E+00
  0.2368E+00
  0.2191E+00
  0.2083E+00
  0.2030E+00
  0.2009E+00
  0.2002E+00
  0.2001E+00
  0.2000E+00
  0.2000E+00
  0.2000E+00
  0.2000E+00
  0.2000E+00
  0.2000E+00
  0.2000E+00
  0.2000E+00
  0.2000E+00
  0.2000E+00
  0.2000E+00
  0.2000E+00
  0.2000E+00
  0.2000E+00
  0.2000E+00
  0.2000E+00
  0.2000E+00
  0.2000E+00
  0.2000E+00
  0.2000E+00
  0.2000E+00
  0.2000E+00
  0.5252E+00
  0.5252E+00
  0.5252E+00
  0.5252E+00
  0.5252E+00
  0.5252E+00
  0.5252E+00
  0.5252E+00
  0.5252E+00
  0.5252E+00
  0.5252E+00
  0.5251E+00
  0.5249E+00
  0.5241E+00
  0.5223E+00
  0.5188E+00
  0.5131E+00
  0.5047E+00
  0.4934E+00
  0.4792E+00
  0.4619E+00
  0.4409E+00
  0.4163E+00
  0.3883E+00
  0.3576E+00
  0.3272E+00
  0.2977E+00
  0.2707E+00
  0.2474E+00
  0.2286E+00
  0.2152E+00
  0.2069E+00
  0.2026E+00
  0.2008E+00
  0.2002E+00
  0.2001E+00
  0.2000E+00
  0.2000E+00
  0.2000E+00
  0.2000E+00
  0.2000E+00
  0.2000E+00
  0.2000E+00
  0.2000E+00
  0.2000E+00
  0.2000E+00
  0.2000E+00
  0.2000E+00
  0.2000E+00
  0.2000E+00
  0.2000E+00
  0.2000E+00
  0.2000E+00
  0.2000E+00
  0.2000E+00
  0.2000E+00
  0.2000E+00
  0.2000E+00
  0.2000E+00
  0.2000E+00
  0.3556E+00
  0.3556E+00
  0.3556E+00
  0.3556E+00