# vtk DataFile Version 3.0
vtk output
ASCII
DATASET RECTILINEAR_GRID
DIMENSIONS          61          61 1
X_COORDINATES    61 double
  0.0000E+00
  0.1667E+00
  0.3333E+00
  0.5000E+00
  0.6667E+00
  0.8333E+00
  0.1000E+01
  0.1167E+01
  0.1333E+01
  0.1500E+01
  0.1667E+01
  0.1833E+01
  0.2000E+01
  0.2167E+01
  0.2333E+01
  0.2500E+01
  0.2667E+01
  0.2833E+01
  0.3000E+01
  0.3167E+01
  0.3333E+01
  0.3500E+01
  0.3667E+01
  0.3833E+01
  0.4000E+01
  0.4167E+01
  0.4333E+01
  0.4500E+01
  0.4667E+01
  0.4833E+01
  0.5000E+01
  0.5167E+01
  0.5333E+01
  0.5500E+01
  0.5667E+01
  0.5833E+01
  0.6000E+01
  0.6167E+01
  0.6333E+01
  0.6500E+01
  0.6667E+01
  0.6833E+01
  0.7000E+01
  0.7167E+01
  0.7333E+01
  0.7500E+01
  0.7667E+01
  0.7833E+01
  0.8000E+01
  0.8167E+01
  0.8333E+01
  0.8500E+01
  0.8667E+01
  0.8833E+01
  0.9000E+01
  0.9167E+01
  0.9333E+01
  0.9500E+01
  0.9667E+01
  0.9833E+01
  0.1000E+02
Y_COORDINATES    61 double
  0.0000E+00
  0.1667E+00
  0.3333E+00
  0.5000E+00
  0.6667E+00
  0.8333E+00
  0.1000E+01
  0.1167E+01
  0.1333E+01
  0.1500E+01
  0.1667E+01
  0.1833E+01
  0.2000E+01
  0.2167E+01
  0.2333E+01
  0.2500E+01
  0.2667E+01
  0.2833E+01
  0.3000E+01
  0.3167E+01
  0.3333E+01
  0.3500E+01
  0.3667E+01
  0.3833E+01
  0.4000E+01
  0.4167E+01
  0.4333E+01
  0.4500E+01
  0.4667E+01
  0.4833E+01
  0.5000E+01
  0.5167E+01
  0.5333E+01
  0.5500E+01
  0.5667E+01
  0.5833E+01
  0.6000E+01
  0.6167E+01
  0.6333E+01
  0.6500E+01
  0.6667E+01
  0.6833E+01
  0.7000E+01
  0.7167E+01
  0.7333E+01
  0.7500E+01
  0.7667E+01
  0.7833E+01
  0.8000E+01
  0.8167E+01
  0.8333E+01
  0.8500E+01
  0.8667E+01
  0.8833E+01
  0.9000E+01
  0.9167E+01
  0.9333E+01
  0.9500E+01
  0.9667E+01
  0.9833E+01
  0.1000E+02
Z_COORDINATES 1 double
0
CELL_DATA                 3600
FIELD FieldData 4
density 1                 3600 double
  0.1518E+01
  0.1518E+01
  0.1518E+01
  0.1518E+01
  0.1518E+01
  0.1518E+01
  0.1518E+01
  0.1518E+01
  0.1518E+01
  0.1518E+01
  0.1518E+01
  0.1518E+01
  0.1517E+01
  0.1514E+01
  0.1504E+01
  0.1481E+01
  0.1439E+01
  0.1382E+01
  0.1315E+01
  0.1245E+01
  0.1177E+01
  0.1110E+01
  0.1047E+01
  0.9876E+00
  0.9322E+00
  0.8808E+00
  0.8331E+00
  0.7891E+00
  0.7485E+00
  0.7114E+00
  0.6782E+00
  0.6495E+00
  0.6252E+00
  0.6075E+00
  0.5991E+00
  0.6011E+00
  0.6100E+00
  0.6221E+00
  0.6337E+00
  0.6397E+00
  0.6378E+00
  0.6210E+00
  0.5881E+00
  0.5583E+00
  0.5497E+00
  0.5508E+00
  0.5574E+00
  0.5701E+00
  0.5705E+00
  0.5033E+00
  0.3433E+00
  0.2384E+00
  0.2031E+00
  0.2000E+00
  0.2000E+00
  0.2000E+00
  0.2000E+00
  0.2000E+00
  0.2000E+00
  0.2000E+00
  0.1498E+01
  0.1498E+01
  0.1498E+01
  0.1498E+01
  0.1498E+01
  0.1498E+01
  0.1498E+01
  0.1498E+01
  0.1498E+01
  0.1498E+01
  0.1498E+01
  0.1498E+01
  0.1497E+01
  0.1494E+01
  0.1485E+01
  0.1462E+01
  0.1421E+01
  0.1364E+01
  0.1298E+01
  0.1229E+01
  0.1160E+01
  0.1094E+01
  0.1031E+01
  0.9717E+00
  0.9163E+00
  0.8648E+00
  0.8171E+00
  0.7729E+00
  0.7322E+00
  0.6950E+00
  0.6617E+00
  0.6328E+00
  0.6084E+00
  0.5904E+00
  0.5815E+00
  0.5831E+00
  0.5914E+00
  0.6027E+00
  0.6137E+00
  0.6199E+00
  0.6185E+00
  0.6036E+00
  0.5735E+00
  0.5466E+00
  0.5406E+00
  0.5424E+00
  0.5512E+00
  0.5646E+00
  0.5647E+00
  0.4971E+00
  0.3396E+00
  0.2371E+00
  0.2029E+00
  0.2000E+00
  0.2000E+00
  0.2000E+00
  0.2000E+00
  0.2000E+00
  0.2000E+00
  0.2000E+00
  0.1458E+01
  0.1458E+01
  0.1458E+01
  0.1458E+01
  0.1458E+01
  0.1458E+01
  0.1458E+01
  0.1458E+01
  0.1458E+01
  0.1458E+01
  0.1458E+01
  0.1458E+01
  0.1457E+01
  0.1454E+01
  0.1445E+01
  0.1424E+01
  0.1384E+01
  0.1328E+01
  0.1263E+01
  0.1195E+01
  0.1128E+01
  0.1062E+01
  0.9995E+00
  0.9406E+00
  0.8855E+00
  0.8343E+00
  0.7868E+00
  0.7428E+00
  0.7023E+00
  0.6653E+00
  0.6321E+00
  0.6033E+00
  0.5790E+00
  0.5610E+00
  0.5515E+00
  0.5526E+00
  0.5600E+00
  0.5702E+00
  0.5805E+00
  0.5875E+00
  0.5871E+00
  0.5753E+00
  0.5501E+00
  0.5286E+00
  0.5256E+00
  0.5292E+00
  0.5406E+00
  0.5550E+00
  0.5548E+00
  0.4860E+00
  0.3327E+00
  0.2345E+00
  0.2026E+00
  0.2000E+00
  0.2000E+00
  0.2000E+00
  0.2000E+00
  0.2000E+00
  0.2000E+00
  0.2000E+00
  0.1400E+01
  0.1400E+01
  0.1400E+01
  0.1400E+01
  0.1400E+01
  0.1400E+01
  0.1400E+01
  0.1400E+01
  0.1400E+01
  0.1400E+01
  0.1400E+01
  0.1400E+01
  0.1399E+01
  0.1396E+01
  0.1388E+01
  0.1367E+01
  0.1330E+01
  0.1276E+01
  0.1213E+01
  0.1147E+01
  0.1081E+01
  0.1017E+01
  0.9553E+00
  0.8975E+00
  0.8435E+00
  0.7932E+00
  0.7467E+00
  0.7036E+00
  0.6640E+00
  0.6278E+00
  0.5954E+00
  0.5672E+00
  0.5435E+00
  0.5258E+00
  0.5160E+00
  0.5167E+00
  0.5234E+00
  0.5328E+00
  0.5429E+00
  0.5515E+00
  0.5524E+00
  0.5449E+00
  0.5252E+00
  0.5094E+00
  0.5082E+00
  0.5141E+00
  0.5279E+00
  0.5436E+00
  0.5427E+00
  0.4703E+00
  0.3224E+00
  0.2306E+00
  0.2021E+00
  0.2000E+00
  0.2000E+00
  0.2000E+00
  0.2000E+00
  0.2000E+00
  0.2000E+00
  0.2000E+00
  0.1328E+01
  0.1328E+01
  0.1328E+01
  0.1328E+01
  0.1328E+01
  0.1328E+01
  0.1328E+01
  0.1328E+01
  0.1328E+01
  0.1328E+01
  0.1328E+01
  0.1328E+01
  0.1328E+01
  0.1325E+01
  0.1318E+01
  0.1299E+01
  0.1264E+01
  0.1213E+01
  0.1153E+01
  0.1089E+01
  0.1025E+01
  0.9630E+00
  0.9037E+00
  0.8477E+00
  0.7955E+00
  0.7469E+00
  0.7019E+00
  0.6604E+00
  0.6221E+00
  0.5873E+00
  0.5561E+00
  0.5290E+00
  0.5063E+00
  0.4893E+00
  0.4793E+00
  0.4798E+00
  0.4859E+00
  0.4951E+00
  0.5057E+00
  0.5168E+00
  0.5206E+00
  0.5166E+00
  0.5023E+00
  0.4908E+00
  0.4910E+00
  0.4994E+00
  0.5154E+00
  0.5322E+00
  0.5296E+00
  0.4506E+00
  0.3093E+00
  0.2257E+00
  0.2016E+00
  0.2000E+00
  0.2000E+00
  0.2000E+00
  0.2000E+00
  0.2000E+00
  0.2000E+00
  0.2000E+00
  0.1252E+01
  0.1252E+01
  0.1252E+01
  0.1252E+01
  0.1252E+01
  0.1252E+01
  0.1252E+01
  0.1252E+01
  0.1252E+01
  0.1252E+01
  0.1252E+01
  0.1252E+01
  0.1251E+01
  0.1249E+01
  0.1242E+01
  0.1226E+01
  0.1194E+01
  0.1146E+01
  0.1089E+01
  0.1028E+01
  0.9665E+00
  0.9070E+00
  0.8501E+00
  0.7965E+00
  0.7464E+00
  0.6999E+00
  0.6568E+00
  0.6171E+00
  0.5806E+00
  0.5473E+00
  0.5176E+00
  0.4917E+00
  0.4700E+00
  0.4536E+00
  0.4437E+00
  0.4441E+00
  0.4498E+00
  0.4593E+00
  0.4716E+00
  0.4864E+00
  0.4943E+00
  0.4926E+00
  0.4821E+00
  0.4739E+00
  0.4753E+00
  0.4859E+00
  0.5039E+00
  0.5210E+00
  0.5153E+00
  0.4266E+00
  0.2939E+00
  0.2203E+00
  0.2011E+00
  0.2000E+00
  0.2000E+00
  0.2000E+00
  0.2000E+00
  0.2000E+00
  0.2000E+00
  0.2000E+00
  0.1176E+01
  0.1176E+01
  0.1176E+01
  0.1176E+01
  0.1176E+01
  0.1176E+01
  0.1176E+01
  0.1176E+01
  0.1176E+01
  0.1176E+01
  0.1176E+01
  0.1176E+01
  0.1175E+01
  0.1173E+01
  0.1168E+01
  0.1153E+01
  0.1124E+01
  0.1079E+01
  0.1025E+01
  0.9674E+00
  0.9092E+00
  0.8525E+00
  0.7982E+00
  0.7470E+00
  0.6991E+00
  0.6547E+00
  0.6137E+00
  0.5759E+00
  0.5411E+00
  0.5095E+00
  0.4812E+00
  0.4565E+00
  0.4357E+00
  0.4200E+00
  0.4104E+00
  0.4107E+00
  0.4164E+00
  0.4271E+00
  0.4428E+00
  0.4622E+00
  0.4743E+00
  0.4738E+00
  0.4650E+00
  0.4588E+00
  0.4617E+00
  0.4748E+00
  0.4945E+00
  0.5112E+00
  0.4990E+00
  0.3984E+00
  0.2772E+00
  0.2147E+00
  0.2007E+00
  0.2000E+00
  0.2000E+00
  0.2000E+00
  0.2000E+00
  0.2000E+00
  0.2000E+00
  0.2000E+00
  0.1103E+01
  0.1103E+01
  0.1103E+01
  0.1103E+01
  0.1103E+01
  0.1103E+01
  0.1103E+01
  0.1103E+01
  0.1103E+01
  0.1103E+01
  0.1103E+01
  0.1103E+01
  0.1103E+01
  0.1101E+01
  0.1096E+01
  0.1083E+01
  0.1057E+01
  0.1016E+01
  0.9654E+00
  0.9104E+00
  0.8550E+00
  0.8010E+00
  0.7492E+00
  0.7004E+00
  0.6548E+00
  0.6125E+00
  0.5734E+00
  0.5374E+00
  0.5043E+00
  0.4742E+00
  0.4473E+00
  0.4239E+00
  0.4040E+00
  0.3886E+00
  0.3798E+00
  0.3804E+00
  0.3866E+00
  0.4002E+00
  0.4214E+00
  0.4464E+00
  0.4618E+00
  0.4609E+00
  0.4506E+00
  0.4460E+00
  0.4504E+00
  0.4659E+00
  0.4873E+00
  0.5011E+00
  0.4784E+00
  0.3668E+00
  0.2601E+00
  0.2097E+00
  0.2004E+00
  0.2000E+00
  0.2000E+00
  0.2000E+00
  0.2000E+00
  0.2000E+00
  0.2000E+00
  0.2000E+00
  0.1035E+01
  0.1035E+01
  0.1035E+01
  0.1035E+01
  0.1035E+01
  0.1035E+01
  0.1035E+01
  0.1035E+01
  0.1035E+01
  0.1035E+01
  0.1035E+01
  0.1035E+01
  0.1035E+01
  0.1034E+01
  0.1029E+01
  0.1018E+01
  0.9944E+00
  0.9569E+00
  0.9094E+00
  0.8573E+00
  0.8047E+00
  0.7532E+00
  0.7038E+00
  0.6573E+00
  0.6138E+00
  0.5734E+00
  0.5362E+00
  0.5019E+00
  0.4704E+00
  0.4418E+00
  0.4161E+00
  0.3938E+00
  0.3748E+00
  0.3590E+00
  0.3524E+00
  0.3538E+00
  0.3620E+00
  0.3817E+00
  0.4137E+00
  0.4472E+00
  0.4561E+00
  0.4512E+00
  0.4373E+00
  0.4352E+00
  0.4419E+00
  0.4598E+00
  0.4821E+00
  0.4907E+00
  0.4507E+00
  0.3341E+00
  0.2437E+00
  0.2058E+00
  0.2002E+00
  0.2000E+00
  0.2000E+00
  0.2000E+00
  0.2000E+00
  0.2000E+00
  0.2000E+00
  0.2000E+00
  0.9721E+00
  0.9721E+00
  0.9721E+00
  0.9721E+00
  0.9721E+00
  0.9721E+00
  0.9721E+00
  0.9721E+00
  0.9721E+00
  0.9721E+00
  0.9721E+00
  0.9720E+00
  0.9718E+00
  0.9708E+00
  0.9673E+00
  0.9574E+00
  0.9363E+00
  0.9020E+00
  0.8575E+00
  0.8082E+00
  0.7581E+00
  0.7090E+00
  0.6619E+00
  0.6174E+00
  0.5759E+00
  0.5374E+00
  0.5019E+00
  0.4691E+00
  0.4391E+00
  0.4119E+00
  0.3874E+00
  0.3661E+00
  0.3480E+00
  0.3318E+00
  0.3289E+00
  0.3318E+00
  0.3474E+00
  0.3819E+00
  0.4213E+00
  0.4498E+00
  0.4512E+00
  0.4398E+00
  0.4264E+00
  0.4269E+00
  0.4371E+00
  0.4569E+00
  0.4781E+00
  0.4771E+00
  0.4140E+00
  0.3025E+00
  0.2291E+00
  0.2030E+00
  0.2001E+00
  0.2000E+00
  0.2000E+00
  0.2000E+00
  0.2000E+00
  0.2000E+00
  0.2000E+00
  0.2000E+00
  0.9137E+00
  0.9137E+00
  0.9137E+00
  0.9137E+00
  0.9137E+00
  0.9137E+00
  0.9137E+00
  0.9137E+00
  0.9137E+00
  0.9137E+00
  0.9137E+00
  0.9137E+00
  0.9135E+00
  0.9127E+00
  0.9097E+00
  0.9012E+00
  0.8825E+00
  0.8512E+00
  0.8096E+00
  0.7630E+00
  0.7152E+00
  0.6684E+00
  0.6233E+00
  0.5808E+00
  0.5411E+00
  0.5043E+00
  0.4704E+00
  0.4391E+00
  0.4105E+00
  0.3845E+00
  0.3612E+00
  0.3406E+00
  0.3231E+00
  0.3092E+00
  0.3087E+00
  0.3195E+00
  0.3505E+00
  0.3933E+00
  0.4357E+00
  0.4494E+00
  0.4449E+00
  0.4273E+00
  0.4191E+00
  0.4221E+00
  0.4355E+00
  0.4571E+00
  0.4724E+00
  0.4574E+00
  0.3710E+00
  0.2734E+00
  0.2173E+00
  0.2014E+00
  0.2000E+00
  0.2000E+00
  0.2000E+00
  0.2000E+00
  0.2000E+00
  0.2000E+00
  0.2000E+00
  0.2000E+00
  0.8602E+00
  0.8602E+00
  0.8602E+00
  0.8602E+00
  0.8602E+00
  0.8602E+00
  0.8602E+00
  0.8602E+00
  0.8602E+00
  0.8602E+00
  0.8602E+00
  0.8601E+00
  0.8600E+00
  0.8594E+00
  0.8569E+00
  0.8496E+00
  0.8331E+00
  0.8046E+00
  0.7658E+00
  0.7217E+00
  0.6761E+00
  0.6313E+00
  0.5882E+00
  0.5475E+00
  0.5095E+00
  0.4742E+00
  0.4418E+00
  0.4119E+00
  0.3845E+00
  0.3598E+00
  0.3371E+00
  0.3177E+00
  0.2990E+00
  0.2936E+00
  0.3011E+00
  0.3257E+00
  0.3657E+00
  0.4111E+00
  0.4437E+00
  0.4454E+00
  0.4336E+00
  0.4164E+00
  0.4148E+00
  0.4206E+00
  0.4375E+00
  0.4582E+00
  0.4628E+00
  0.4245E+00
  0.3280E+00
  0.2484E+00
  0.2090E+00
  0.2005E+00
  0.2000E+00
  0.2000E+00
  0.2000E+00
  0.2000E+00
  0.2000E+00
  0.2000E+00
  0.2000E+00
  0.2000E+00
  0.8120E+00
  0.8120E+00
  0.8120E+00
  0.8120E+00
  0.8120E+00
  0.8120E+00
  0.8120E+00
  0.8120E+00
  0.8120E+00
  0.8120E+00
  0.8120E+00
  0.8120E+00
  0.8118E+00
  0.8113E+00
  0.8093E+00
  0.8031E+00
  0.7886E+00
  0.7627E+00
  0.7266E+00
  0.6847E+00
  0.6412E+00
  0.5982E+00
  0.5568E+00
  0.5177E+00
  0.4811E+00
  0.4473E+00
  0.4161E+00
  0.3874E+00
  0.3612E+00
  0.3371E+00
  0.3159E+00
  0.2954E+00
  0.2840E+00
  0.2895E+00
  0.3090E+00
  0.3456E+00
  0.3890E+00
  0.4289E+00
  0.4417E+00
  0.4364E+00
  0.4182E+00
  0.4101E+00
  0.4124E+00
  0.4230E+00
  0.4427E+00
  0.4560E+00
  0.4457E+00
  0.3786E+00
  0.2897E+00
  0.2285E+00
  0.2040E+00
  0.2002E+00
  0.2000E+00
  0.2000E+00
  0.2000E+00
  0.2000E+00
  0.2000E+00
  0.2000E+00
  0.2000E+00
  0.2000E+00
  0.7695E+00
  0.7695E+00
  0.7695E+00
  0.7695E+00
  0.7695E+00
  0.7695E+00
  0.7695E+00
  0.7695E+00
  0.7695E+00
  0.7695E+00
  0.7695E+00
  0.7695E+00
  0.7694E+00
  0.7690E+00
  0.7674E+00
  0.7621E+00
  0.7494E+00
  0.7260E+00
  0.6923E+00
  0.6525E+00
  0.6108E+00
  0.5695E+00
  0.5296E+00
  0.4918E+00
  0.4565E+00
  0.4239E+00
  0.3938E+00
  0.3660E+00
  0.3406E+00
  0.3176E+00
  0.2955E+00
  0.2809E+00
  0.2833E+00
  0.2978E+00
  0.3279E+00
  0.3698E+00
  0.4148E+00
  0.4384E+00
  0.4366E+00
  0.4214E+00
  0.4075E+00
  0.4077E+00
  0.4144E+00
  0.4304E+00
  0.4462E+00
  0.4470E+00
  0.4122E+00
  0.3309E+00
  0.2577E+00
  0.2146E+00
  0.2015E+00
  0.2001E+00
  0.2000E+00
  0.2000E+00
  0.2000E+00
  0.2000E+00
  0.2000E+00
  0.2000E+00
  0.2000E+00
  0.2000E+00
  0.7332E+00
  0.7332E+00
  0.7332E+00
  0.7332E+00
  0.7332E+00
  0.7332E+00
  0.7332E+00
  0.7332E+00
  0.7332E+00
  0.7332E+00
  0.7332E+00
  0.7332E+00
  0.7331E+00
  0.7328E+00
  0.7315E+00
  0.7270E+00
  0.7159E+00
  0.6946E+00
  0.6631E+00
  0.6253E+00
  0.5853E+00
  0.5453E+00
  0.5067E+00
  0.4700E+00
  0.4357E+00
  0.4040E+00
  0.3748E+00
  0.3479E+00
  0.3231E+00
  0.2988E+00
  0.2839E+00
  0.2835E+00
  0.2921E+00
  0.3185E+00
  0.3539E+00
  0.3931E+00
  0.4286E+00
  0.4347E+00
  0.4255E+00
  0.4083E+00
  0.4054E+00
  0.4091E+00
  0.4224E+00
  0.4373E+00
  0.4431E+00
  0.4268E+00
  0.3641E+00
  0.2890E+00
  0.2328E+00
  0.2063E+00
  0.2005E+00
  0.2000E+00
  0.2000E+00
  0.2000E+00
  0.2000E+00
  0.2000E+00
  0.2000E+00
  0.2000E+00
  0.2000E+00
  0.2000E+00
  0.7053E+00
  0.7053E+00
  0.7053E+00
  0.7053E+00
  0.7053E+00
  0.7053E+00
  0.7053E+00
  0.7053E+00
  0.7053E+00
  0.7053E+00
  0.7053E+00
  0.7053E+00
  0.7053E+00
  0.7050E+00
  0.7039E+00
  0.7002E+00
  0.6904E+00
  0.6710E+00
  0.6415E+00
  0.6051E+00
  0.5662E+00
  0.5273E+00
  0.4896E+00
  0.4536E+00
  0.4200E+00
  0.3886E+00
  0.3590E+00
  0.3317E+00
  0.3092E+00
  0.2941E+00
  0.2895E+00
  0.2977E+00
  0.3185E+00
  0.3488E+00
  0.3855E+00
  0.4186E+00
  0.4297E+00
  0.4253E+00
  0.4107E+00
  0.4047E+00
  0.4067E+00
  0.4169E+00
  0.4308E+00
  0.4377E+00
  0.4308E+00
  0.3867E+00
  0.3166E+00
  0.2547E+00
  0.2159E+00
  0.2022E+00
  0.2001E+00
  0.2000E+00
  0.2000E+00
  0.2000E+00
  0.2000E+00
  0.2000E+00
  0.2000E+00
  0.2000E+00
  0.2000E+00
  0.2000E+00
  0.6864E+00
  0.6864E+00
  0.6864E+00
  0.6864E+00
  0.6864E+00
  0.6864E+00
  0.6864E+00
  0.6864E+00
  0.6864E+00
  0.6864E+00
  0.6864E+00
  0.6864E+00
  0.6863E+00
  0.6861E+00
  0.6852E+00
  0.6821E+00
  0.6737E+00
  0.6563E+00
  0.6287E+00
  0.5938E+00
  0.5557E+00
  0.5172E+00
  0.4796E+00
  0.4438E+00
  0.4104E+00
  0.3798E+00
  0.3524E+00
  0.3290E+00
  0.3088E+00
  0.3009E+00
  0.3088E+00
  0.3279E+00
  0.3539E+00
  0.3855E+00
  0.4203E+00
  0.4339E+00
  0.4287E+00
  0.4139E+00
  0.4054E+00
  0.4058E+00
  0.4132E+00
  0.4257E+00
  0.4334E+00
  0.4310E+00
  0.4002E+00
  0.3380E+00
  0.2754E+00
  0.2292E+00
  0.2064E+00
  0.2007E+00
  0.2000E+00
  0.2000E+00
  0.2000E+00
  0.2000E+00
  0.2000E+00
  0.2000E+00
  0.2000E+00
  0.2000E+00
  0.2000E+00
  0.2000E+00
  0.6839E+00
  0.6839E+00
  0.6839E+00
  0.6839E+00
  0.6839E+00
  0.6839E+00
  0.6839E+00
  0.6839E+00
  0.6839E+00
  0.6839E+00
  0.6839E+00
  0.6839E+00
  0.6839E+00
  0.6837E+00
  0.6830E+00
  0.6802E+00
  0.6723E+00
  0.6556E+00
  0.6288E+00
  0.5943E+00
  0.5563E+00
  0.5177E+00
  0.4800E+00
  0.4441E+00
  0.4107E+00
  0.3804E+00
  0.3538E+00
  0.3318E+00
  0.3194E+00
  0.3256E+00
  0.3456E+00
  0.3696E+00
  0.3931E+00
  0.4188E+00
  0.4340E+00
  0.4330E+00
  0.4210E+00
  0.4087E+00
  0.4067E+00
  0.4108E+00
  0.4214E+00
  0.4298E+00
  0.4293E+00
  0.4071E+00
  0.3534E+00
  0.2928E+00
  0.2430E+00
  0.2130E+00
  0.2021E+00
  0.2002E+00
  0.2000E+00
  0.2000E+00
  0.2000E+00
  0.2000E+00
  0.2000E+00
  0.2000E+00
  0.2000E+00
  0.2000E+00
  0.2000E+00
  0.2000E+00
  0.6861E+00
  0.6861E+00
  0.6861E+00
  0.6861E+00
  0.6861E+00
  0.6861E+00
  0.6861E+00
  0.6861E+00
  0.6861E+00
  0.6861E+00
  0.6861E+00
  0.6861E+00
  0.6861E+00
  0.6859E+00
  0.6853E+00
  0.6829E+00
  0.6760E+00
  0.6608E+00
  0.6352E+00
  0.6012E+00
  0.5632E+00
  0.5242E+00
  0.4860E+00
  0.4499E+00
  0.4164E+00
  0.3867E+00
  0.3620E+00
  0.3472E+00
  0.3504E+00
  0.3656E+00
  0.3890E+00
  0.4145E+00
  0.4285E+00
  0.4300E+00
  0.4290E+00
  0.4213E+00
  0.4121E+00
  0.4095E+00
  0.4118E+00
  0.4190E+00
  0.4266E+00
  0.4267E+00
  0.4086E+00
  0.3624E+00
  0.3062E+00
  0.2555E+00
  0.2207E+00
  0.2047E+00
  0.2006E+00
  0.2000E+00
  0.2000E+00
  0.2000E+00
  0.2000E+00
  0.2000E+00
  0.2000E+00
  0.2000E+00
  0.2000E+00
  0.2000E+00
  0.2000E+00
  0.2000E+00
  0.6935E+00
  0.6935E+00
  0.6935E+00
  0.6935E+00
  0.6935E+00
  0.6935E+00
  0.6935E+00
  0.6935E+00
  0.6935E+00
  0.6935E+00
  0.6935E+00
  0.6935E+00
  0.6934E+00
  0.6933E+00
  0.6928E+00
  0.6907E+00
  0.6845E+00
  0.6702E+00
  0.6453E+00
  0.6114E+00
  0.5729E+00
  0.5335E+00
  0.4952E+00
  0.4593E+00
  0.4272E+00
  0.4003E+00
  0.3816E+00
  0.3821E+00
  0.3930E+00
  0.4110E+00
  0.4291E+00
  0.4383E+00
  0.4346E+00
  0.4255E+00
  0.4143E+00
  0.4088E+00
  0.4096E+00
  0.4137E+00
  0.4198E+00
  0.4248E+00
  0.4247E+00
  0.4079E+00
  0.3655E+00
  0.3145E+00
  0.2657E+00
  0.2285E+00
  0.2081E+00
  0.2013E+00
  0.2001E+00
  0.2000E+00
  0.2000E+00
  0.2000E+00
  0.2000E+00
  0.2000E+00
  0.2000E+00
  0.2000E+00
  0.2000E+00
  0.2000E+00
  0.2000E+00
  0.2000E+00
  0.7008E+00
  0.7008E+00
  0.7008E+00
  0.7008E+00
  0.7008E+00
  0.7008E+00
  0.7008E+00
  0.7008E+00
  0.7008E+00
  0.7008E+00
  0.7008E+00
  0.7008E+00
  0.7007E+00
  0.7007E+00
  0.7002E+00
  0.6984E+00
  0.6927E+00
  0.6793E+00
  0.6552E+00
  0.6216E+00
  0.5829E+00
  0.5435E+00
  0.5058E+00
  0.4717E+00
  0.4428E+00
  0.4215E+00
  0.4136E+00
  0.4213E+00
  0.4359E+00
  0.4435E+00
  0.4419E+00
  0.4367E+00
  0.4255E+00
  0.4106E+00
  0.4053E+00
  0.4068E+00
  0.4118E+00
  0.4199E+00
  0.4251E+00
  0.4243E+00
  0.4080E+00
  0.3667E+00
  0.3183E+00
  0.2725E+00
  0.2352E+00
  0.2119E+00
  0.2025E+00
  0.2003E+00
  0.2000E+00
  0.2000E+00
  0.2000E+00
  0.2000E+00
  0.2000E+00
  0.2000E+00
  0.2000E+00
  0.2000E+00
  0.2000E+00
  0.2000E+00
  0.2000E+00
  0.2000E+00
  0.7025E+00
  0.7025E+00
  0.7025E+00
  0.7025E+00
  0.7025E+00
  0.7025E+00
  0.7025E+00
  0.7025E+00
  0.7025E+00
  0.7025E+00
  0.7025E+00
  0.7025E+00
  0.7025E+00
  0.7024E+00
  0.7020E+00
  0.7004E+00
  0.6952E+00
  0.6827E+00
  0.6597E+00
  0.6270E+00
  0.5897E+00
  0.5520E+00
  0.5169E+00
  0.4865E+00
  0.4623E+00
  0.4464E+00
  0.4470E+00
  0.4498E+00
  0.4493E+00
  0.4454E+00
  0.4365E+00
  0.4212E+00
  0.4083E+00
  0.4047E+00
  0.4058E+00
  0.4108E+00
  0.4190E+00
  0.4249E+00
  0.4243E+00
  0.4085E+00
  0.3671E+00
  0.3196E+00
  0.2759E+00
  0.2401E+00
  0.2156E+00
  0.2039E+00
  0.2006E+00
  0.2001E+00
  0.2000E+00
  0.2000E+00
  0.2000E+00
  0.2000E+00
  0.2000E+00
  0.2000E+00
  0.2000E+00
  0.2000E+00
  0.2000E+00
  0.2000E+00
  0.2000E+00
  0.2000E+00
  0.6992E+00
  0.6992E+00
  0.6992E+00
  0.6992E+00
  0.6992E+00
  0.6992E+00
  0.6992E+00
  0.6992E+00
  0.6992E+00
  0.6992E+00
  0.6992E+00
  0.6992E+00
  0.6991E+00
  0.6991E+00
  0.6987E+00
  0.6971E+00
  0.6920E+00
  0.6798E+00
  0.6572E+00
  0.6254E+00
  0.5891E+00
  0.5529E+00
  0.5207E+00
  0.4943E+00
  0.4744E+00
  0.4618E+00
  0.4560E+00
  0.4511E+00
  0.4449E+00
  0.4335E+00
  0.4185E+00
  0.4075E+00
  0.4056E+00
  0.4069E+00
  0.4133E+00
  0.4215E+00
  0.4264E+00
  0.4247E+00
  0.4080E+00
  0.3671E+00
  0.3195E+00
  0.2765E+00
  0.2426E+00
  0.2184E+00
  0.2054E+00
  0.2010E+00
  0.2001E+00
  0.2000E+00
  0.2000E+00
  0.2000E+00
  0.2000E+00
  0.2000E+00
  0.2000E+00
  0.2000E+00
  0.2000E+00
  0.2000E+00
  0.2000E+00
  0.2000E+00
  0.2000E+00
  0.2000E+00
  0.6780E+00
  0.6780E+00
  0.6780E+00
  0.6780E+00
  0.6780E+00
  0.6780E+00
  0.6780E+00
  0.6780E+00
  0.6780E+00
  0.6780E+00
  0.6780E+00
  0.6780E+00
  0.6780E+00
  0.6779E+00
  0.6776E+00
  0.6761E+00
  0.6714E+00
  0.6600E+00
  0.6391E+00
  0.6101E+00
  0.5772E+00
  0.5453E+00
  0.5167E+00
  0.4926E+00
  0.4738E+00
  0.4609E+00
  0.4511E+00
  0.4397E+00
  0.4271E+00
  0.4163E+00
  0.4101E+00
  0.4075E+00
  0.4091E+00
  0.4170E+00
  0.4257E+00
  0.4297E+00
  0.4267E+00
  0.4079E+00
  0.3667E+00
  0.3196E+00
  0.2765E+00
  0.2428E+00
  0.2197E+00
  0.2066E+00
  0.2014E+00
  0.2002E+00
  0.2000E+00
  0.2000E+00
  0.2000E+00
  0.2000E+00
  0.2000E+00
  0.2000E+00
  0.2000E+00
  0.2000E+00
  0.2000E+00
  0.2000E+00
  0.2000E+00
  0.2000E+00
  0.2000E+00
  0.2000E+00
  0.6408E+00
  0.6408E+00
  0.6408E+00
  0.6408E+00
  0.6408E+00
  0.6408E+00
  0.6408E+00
  0.6408E+00
  0.6408E+00
  0.6408E+00
  0.6408E+00
  0.6408E+00
  0.6408E+00
  0.6407E+00
  0.6403E+00
  0.6389E+00
  0.6344E+00
  0.6239E+00
  0.6051E+00
  0.5797E+00
  0.5519E+00
  0.5257E+00
  0.5023E+00
  0.4822E+00
  0.4650E+00
  0.4505E+00
  0.4373E+00
  0.4264E+00
  0.4189E+00
  0.4146E+00
  0.4124E+00
  0.4143E+00
  0.4222E+00
  0.4306E+00
  0.4335E+00
  0.4293E+00
  0.4085E+00
  0.3655E+00
  0.3183E+00
  0.2759E+00
  0.2426E+00
  0.2197E+00
  0.2071E+00
  0.2018E+00
  0.2003E+00
  0.2000E+00
  0.2000E+00
  0.2000E+00
  0.2000E+00
  0.2000E+00
  0.2000E+00
  0.2000E+00
  0.2000E+00
  0.2000E+00
  0.2000E+00
  0.2000E+00
  0.2000E+00
  0.2000E+00
  0.2000E+00
  0.2000E+00
  0.6074E+00
  0.6074E+00
  0.6074E+00
  0.6074E+00
  0.6074E+00
  0.6074E+00
  0.6074E+00
  0.6074E+00
  0.6074E+00
  0.6074E+00
  0.6074E+00
  0.6074E+00
  0.6073E+00
  0.6073E+00
  0.6069E+00
  0.6055E+00
  0.6012E+00
  0.5913E+00
  0.5742E+00
  0.5526E+00
  0.5305E+00
  0.5098E+00
  0.4909E+00
  0.4739E+00
  0.4588E+00
  0.4460E+00
  0.4351E+00
  0.4269E+00
  0.4220E+00
  0.4206E+00
  0.4232E+00
  0.4306E+00
  0.4374E+00
  0.4377E+00
  0.4312E+00
  0.4071E+00
  0.3624E+00
  0.3145E+00
  0.2725E+00
  0.2401E+00
  0.2184E+00
  0.2066E+00
  0.2018E+00
  0.2004E+00
  0.2001E+00
  0.2000E+00
  0.2000E+00
  0.2000E+00
  0.2000E+00
  0.2000E+00
  0.2000E+00
  0.2000E+00
  0.2000E+00
  0.2000E+00
  0.2000E+00
  0.2000E+00
  0.2000E+00
  0.2000E+00
  0.2000E+00
  0.2000E+00
  0.5919E+00
  0.5919E+00
  0.5919E+00
  0.5919E+00
  0.5919E+00
  0.5919E+00
  0.5919E+00
  0.5919E+00
  0.5919E+00
  0.5919E+00
  0.5919E+00
  0.5919E+00
  0.5919E+00
  0.5918E+00
  0.5915E+00
  0.5901E+00
  0.5862E+00
  0.5777E+00
  0.5639E+00
  0.5463E+00
  0.5274E+00
  0.5086E+00
  0.4911E+00
  0.4753E+00
  0.4616E+00
  0.4504E+00
  0.4419E+00
  0.4370E+00
  0.4355E+00
  0.4375E+00
  0.4424E+00
  0.4462E+00
  0.4428E+00
  0.4310E+00
  0.4001E+00
  0.3534E+00
  0.3062E+00
  0.2657E+00
  0.2352E+00
  0.2156E+00
  0.2054E+00
  0.2014E+00
  0.2003E+00
  0.2001E+00
  0.2000E+00
  0.2000E+00
  0.2000E+00
  0.2000E+00
  0.2000E+00
  0.2000E+00
  0.2000E+00
  0.2000E+00
  0.2000E+00
  0.2000E+00
  0.2000E+00
  0.2000E+00
  0.2000E+00
  0.2000E+00
  0.2000E+00
  0.2000E+00
  0.5906E+00
  0.5906E+00
  0.5906E+00
  0.5906E+00
  0.5906E+00
  0.5906E+00
  0.5906E+00
  0.5906E+00
  0.5906E+00
  0.5906E+00
  0.5906E+00
  0.5906E+00
  0.5905E+00
  0.5905E+00
  0.5901E+00
  0.5889E+00
  0.5853E+00
  0.5773E+00
  0.5643E+00
  0.5478E+00
  0.5309E+00
  0.5146E+00
  0.4995E+00
  0.4859E+00
  0.4748E+00
  0.4659E+00
  0.4597E+00
  0.4569E+00
  0.4570E+00
  0.4583E+00
  0.4560E+00
  0.4471E+00
  0.4269E+00
  0.3865E+00
  0.3380E+00
  0.2928E+00
  0.2555E+00
  0.2285E+00
  0.2119E+00
  0.2039E+00
  0.2010E+00
  0.2002E+00
  0.2000E+00
  0.2000E+00
  0.2000E+00
  0.2000E+00
  0.2000E+00
  0.2000E+00
  0.2000E+00
  0.2000E+00
  0.2000E+00
  0.2000E+00
  0.2000E+00
  0.2000E+00
  0.2000E+00
  0.2000E+00
  0.2000E+00
  0.2000E+00
  0.2000E+00
  0.2000E+00
  0.5917E+00
  0.5917E+00
  0.5917E+00
  0.5917E+00
  0.5917E+00
  0.5917E+00
  0.5917E+00
  0.5917E+00
  0.5917E+00
  0.5917E+00
  0.5917E+00
  0.5917E+00
  0.5917E+00
  0.5916E+00
  0.5913E+00
  0.5902E+00
  0.5869E+00
  0.5800E+00
  0.5690E+00
  0.5559E+00
  0.5421E+00
  0.5283E+00
  0.5155E+00
  0.5039E+00
  0.4945E+00
  0.4873E+00
  0.4821E+00
  0.4780E+00
  0.4724E+00
  0.4626E+00
  0.4458E+00
  0.4120E+00
  0.3641E+00
  0.3166E+00
  0.2754E+00
  0.2430E+00
  0.2207E+00
  0.2081E+00
  0.2025E+00
  0.2006E+00
  0.2001E+00
  0.2000E+00
  0.2000E+00
  0.2000E+00
  0.2000E+00
  0.2000E+00
  0.2000E+00
  0.2000E+00
  0.2000E+00
  0.2000E+00
  0.2000E+00
  0.2000E+00
  0.2000E+00
  0.2000E+00
  0.2000E+00
  0.2000E+00
  0.2000E+00
  0.2000E+00
  0.2000E+00
  0.2000E+00
  0.5978E+00
  0.5978E+00
  0.5978E+00
  0.5978E+00
  0.5978E+00
  0.5978E+00
  0.5978E+00
  0.5978E+00
  0.5978E+00
  0.5978E+00
  0.5978E+00
  0.5978E+00
  0.5977E+00
  0.5977E+00
  0.5974E+00
  0.5964E+00
  0.5937E+00
  0.5881E+00
  0.5793E+00
  0.5684E+00
  0.5563E+00
  0.5440E+00
  0.5323E+00
  0.5210E+00
  0.5113E+00
  0.5011E+00
  0.4907E+00
  0.4771E+00
  0.4574E+00
  0.4245E+00
  0.3785E+00
  0.3310E+00
  0.2890E+00
  0.2546E+00
  0.2292E+00
  0.2130E+00
  0.2047E+00
  0.2013E+00
  0.2003E+00
  0.2001E+00
  0.2000E+00
  0.2000E+00
  0.2000E+00
  0.2000E+00
  0.2000E+00
  0.2000E+00
  0.2000E+00
  0.2000E+00
  0.2000E+00
  0.2000E+00
  0.2000E+00
  0.2000E+00
  0.2000E+00
  0.2000E+00
  0.2000E+00
  0.2000E+00
  0.2000E+00
  0.2000E+00
  0.2000E+00
  0.2000E+00
  0.5952E+00
  0.5952E+00
  0.5952E+00
  0.5952E+00
  0.5952E+00
  0.5952E+00
  0.5952E+00
  0.5952E+00
  0.5952E+00
  0.5952E+00
  0.5952E+00
  0.5952E+00
  0.5952E+00
  0.5951E+00
  0.5949E+00
  0.5940E+00
  0.5916E+00
  0.5866E+00
  0.5786E+00
  0.5682E+00
  0.5560E+00
  0.5430E+00
  0.5297E+00
  0.5153E+00
  0.4990E+00
  0.4784E+00
  0.4506E+00
  0.4141E+00
  0.3709E+00
  0.3280E+00
  0.2897E+00
  0.2577E+00
  0.2328E+00
  0.2159E+00
  0.2064E+00
  0.2021E+00
  0.2006E+00
  0.2001E+00
  0.2000E+00
  0.2000E+00
  0.2000E+00
  0.2000E+00
  0.2000E+00
  0.2000E+00
  0.2000E+00
  0.2000E+00
  0.2000E+00
  0.2000E+00
  0.2000E+00
  0.2000E+00
  0.2000E+00
  0.2000E+00
  0.2000E+00
  0.2000E+00
  0.2000E+00
  0.2000E+00
  0.2000E+00
  0.2000E+00
  0.2000E+00
  0.2000E+00
  0.5217E+00
  0.5217E+00
  0.5217E+00
  0.5217E+00
  0.5217E+00
  0.5217E+00
  0.5217E+00
  0.5217E+00
  0.5217E+00
  0.5217E+00
  0.5217E+00
  0.5217E+00
  0.5217E+00
  0.5217E+00
  0.5215E+00
  0.5209E+00
  0.5192E+00
  0.5156E+00
  0.5093E+00
  0.4998E+00
  0.4868E+00
  0.4705E+00
  0.4506E+00
  0.4266E+00
  0.3984E+00
  0.3668E+00
  0.3341E+00
  0.3025E+00
  0.2734E+00
  0.2484E+00
  0.2286E+00
  0.2146E+00
  0.2063E+00
  0.2022E+00
  0.2007E+00
  0.2002E+00
  0.2000E+00
  0.2000E+00
  0.2000E+00
  0.2000E+00
  0.2000E+00
  0.2000E+00
  0.2000E+00
  0.2000E+00
  0.2000E+00
  0.2000E+00
  0.2000E+00
  0.2000E+00
  0.2000E+00
  0.2000E+00
  0.2000E+00
  0.2000E+00
  0.2000E+00
  0.2000E+00
  0.2000E+00
  0.2000E+00
  0.2000E+00
  0.2000E+00
  0.2000E+00
  0.2000E+00
  0.3529E+00
  0.3529E+00
  0.3529E+00
  0.3529E+00
  0.3529E+00
  0.3529E+00
  0.3529E+00
  0.3529E+00
  0.3529E+00
  0.3529E+00
  0.3529E+00
  0.3529E+00
  0.3529E+00
  0.3528E+00
  0.3528E+00
  0.3525E+00
  0.3516E+00
  0.3498E+00
  0.3465E+00
  0.3410E+00
  0.3331E+00
  0.3224E+00
  0.3093E+00
  0.2939E+00
  0.2772E+00
  0.2601E+00
  0.2437E+00
  0.2291E+00
  0.2173E+00
  0.2090E+00
  0.2040E+00
  0.2015E+00
  0.2005E+00
  0.2001E+00
  0.2000E+00
  0.2000E+00
  0.2000E+00
  0.2000E+00
  0.2000E+00
  0.2000E+00
  0.2000E+00
  0.2000E+00
  0.2000E+00
  0.2000E+00
  0.2000E+00
  0.2000E+00
  0.2000E+00
  0.2000E+00
  0.2000E+00
  0.2000E+00
  0.2000E+00
  0.2000E+00
  0.2000E+00
  0.2000E+00
  0.2000E+00
  0.2000E+00
  0.2000E+00
  0.2000E+00
  0.2000E+00
  0.2000E+00
  0.2416E+00
  0.2416E+00
  0.2416E+00
  0.2416E+00
  0.2416E+00
  0.2416E+00
  0.2416E+00
  0.2416E+00
  0.2416E+00
  0.2416E+00
  0.2416E+00
  0.2416E+00
  0.2416E+00
  0.2416E+00
  0.2416E+00
  0.2415E+00
  0.2413E+00
  0.2407E+00
  0.2396E+00
  0.2376E+00
  0.2347E+00
  0.2307E+00
  0.2258E+00
  0.2203E+00
  0.2147E+00
  0.2097E+00
  0.2058E+00
  0.2030E+00
  0.2014E+00
  0.2005E+00
  0.2002E+00
  0.2001E+00
  0.2000E+00
  0.2000E+00
  0.2000E+00
  0.2000E+00
  0.2000E+00
  0.2000E+00
  0.2000E+00
  0.2000E+00
  0.2000E+00
  0.2000E+00
  0.2000E+00
  0.2000E+00
  0.2000E+00
  0.2000E+00
  0.2000E+00
  0.2000E+00
  0.2000E+00
  0.2000E+00
  0.2000E+00
  0.2000E+00
  0.2000E+00
  0.2000E+00
  0.2000E+00
  0.2000E+00
  0.2000E+00
  0.2000E+00
  0.2000E+00
  0.2000E+00
  0.2036E+00
  0.2036E+00
  0.2036E+00
  0.2036E+00
  0.2036E+00
  0.2036E+00
  0.2036E+00
  0.2036E+00
  0.2036E+00
  0.2036E+00
  0.2036E+00
  0.2036E+00
  0.2036E+00
  0.2036E+00
  0.2036E+00
  0.2036E+00
  0.2036E+00
  0.2035E+00
  0.2033E+00
  0.2030E+00
  0.2026E+00
  0.2021E+00
  0.2016E+00
  0.2011E+00
  0.2007E+00
  0.2004E+00
  0.2002E+00
  0.2001E+00
  0.2000E+00
  0.2000E+00
  0.2000E+00
  0.2000E+00
  0.2000E+00
  0.2000E+00
  0.2000E+00
  0.2000E+00
  0.2000E+00
  0.2000E+00
  0.2000E+00
  0.2000E+00
  0.2000E+00
  0.2000E+00
  0.2000E+00
  0.2000E+00
  0.2000E+00
  0.2000E+00
  0.2000E+00
  0.2000E+00
  0.2000E+00
  0.2000E+00
  0.2000E+00
  0.2000E+00
  0.2000E+00
  0.2000E+00
  0.2000E+00
  0.2000E+00
  0.2000E+00
  0.2000E+00
  0.2000E+00
  0.2000E+00
  0.2000E+00
  0.2000E+00
  0.2000E+00
  0.2000E+00
  0.2000E+00
  0.2000E+00
  0.2000E+00
  0.2000E+00
  0.2000E+00
  0.2000E+00
  0.2000E+00
  0.2000E+00
  0.2000E+00
  0.2000E+00
  0.2000E+00
  0.2000E+00
  0.2000E+00
  0.2000E+00
  0.2000E+00
  0.2000E+00
  0.2000E+00
  0.2000E+00
  0.2000E+00
  0.2000E+00
  0.2000E+00
  0.2000E+00
  0.2000E+00
  0.2000E+00
  0.2000E+00
  0.2000E+00
  0.2000E+00
  0.2000E+00
  0.2000E+00
  0.2000E+00
  0.2000E+00
  0.2000E+00
  0.2000E+00
  0.2000E+00
  0.2000E+00
  0.2000E+00
  0.2000E+00
  0.2000E+00
  0.2000E+00
  0.2000E+00
  0.2000E+00
  0.2000E+00
  0.2000E+00
  0.2000E+00
  0.2000E+00
  0.2000E+00
  0.2000E+00
  0.2000E+00
  0.2000E+00
  0.2000E+00
  0.2000E+00
  0.2000E+00
  0.2000E+00
  0.2000E+00
  0.2000E+00
  0.2000E+00
  0.2000E+00
  0.2000E+00
  0.2000E+00
  0.2000E+00