# vtk DataFile Version 3.0
vtk output
ASCII
DATASET RECTILINEAR_GRID
DIMENSIONS          61          61 1
X_COORDINATES    61 double
  0.0000E+00
  0.1667E+00
  0.3333E+00
  0.5000E+00
  0.6667E+00
  0.8333E+00
  0.1000E+01
  0.1167E+01
  0.1333E+01
  0.1500E+01
  0.1667E+01
  0.1833E+01
  0.2000E+01
  0.2167E+01
  0.2333E+01
  0.2500E+01
  0.2667E+01
  0.2833E+01
  0.3000E+01
  0.3167E+01
  0.3333E+01
  0.3500E+01
  0.3667E+01
  0.3833E+01
  0.4000E+01
  0.4167E+01
  0.4333E+01
  0.4500E+01
  0.4667E+01
  0.4833E+01
  0.5000E+01
  0.5167E+01
  0.5333E+01
  0.5500E+01
  0.5667E+01
  0.5833E+01
  0.6000E+01
  0.6167E+01
  0.6333E+01
  0.6500E+01
  0.6667E+01
  0.6833E+01
  0.7000E+01
  0.7167E+01
  0.7333E+01
  0.7500E+01
  0.7667E+01
  0.7833E+01
  0.8000E+01
  0.8167E+01
  0.8333E+01
  0.8500E+01
  0.8667E+01
  0.8833E+01
  0.9000E+01
  0.9167E+01
  0.9333E+01
  0.9500E+01
  0.9667E+01
  0.9833E+01
  0.1000E+02
Y_COORDINATES    61 double
  0.0000E+00
  0.1667E+00
  0.3333E+00
  0.5000E+00
  0.6667E+00
  0.8333E+00
  0.1000E+01
  0.1167E+01
  0.1333E+01
  0.1500E+01
  0.1667E+01
  0.1833E+01
  0.2000E+01
  0.2167E+01
  0.2333E+01
  0.2500E+01
  0.2667E+01
  0.2833E+01
  0.3000E+01
  0.3167E+01
  0.3333E+01
  0.3500E+01
  0.3667E+01
  0.3833E+01
  0.4000E+01
  0.4167E+01
  0.4333E+01
  0.4500E+01
  0.4667E+01
  0.4833E+01
  0.5000E+01
  0.5167E+01
  0.5333E+01
  0.5500E+01
  0.5667E+01
  0.5833E+01
  0.6000E+01
  0.6167E+01
  0.6333E+01
  0.6500E+01
  0.6667E+01
  0.6833E+01
  0.7000E+01
  0.7167E+01
  0.7333E+01
  0.7500E+01
  0.7667E+01
  0.7833E+01
  0.8000E+01
  0.8167E+01
  0.8333E+01
  0.8500E+01
  0.8667E+01
  0.8833E+01
  0.9000E+01
  0.9167E+01
  0.9333E+01
  0.9500E+01
  0.9667E+01
  0.9833E+01
  0.1000E+02
Z_COORDINATES 1 double
0
CELL_DATA                 3600
FIELD FieldData 4
density 1                 3600 double
  0.9243E+00
  0.9243E+00
  0.9243E+00
  0.9243E+00
  0.9243E+00
  0.9243E+00
  0.9241E+00
  0.9234E+00
  0.9211E+00
  0.9154E+00
  0.9035E+00
  0.8838E+00
  0.8572E+00
  0.8264E+00
  0.7939E+00
  0.7613E+00
  0.7292E+00
  0.6980E+00
  0.6678E+00
  0.6389E+00
  0.6112E+00
  0.5849E+00
  0.5599E+00
  0.5363E+00
  0.5140E+00
  0.4929E+00
  0.4731E+00
  0.4544E+00
  0.4370E+00
  0.4207E+00
  0.4057E+00
  0.3921E+00
  0.3800E+00
  0.3698E+00
  0.3627E+00
  0.3616E+00
  0.3634E+00
  0.3687E+00
  0.3748E+00
  0.3809E+00
  0.3872E+00
  0.3946E+00
  0.4030E+00
  0.4134E+00
  0.4254E+00
  0.4349E+00
  0.4359E+00
  0.4318E+00
  0.4255E+00
  0.4256E+00
  0.4320E+00
  0.4470E+00
  0.4640E+00
  0.4814E+00
  0.5012E+00
  0.5184E+00
  0.5134E+00
  0.4293E+00
  0.2959E+00
  0.2215E+00
  0.9233E+00
  0.9233E+00
  0.9233E+00
  0.9233E+00
  0.9233E+00
  0.9233E+00
  0.9231E+00
  0.9224E+00
  0.9202E+00
  0.9144E+00
  0.9026E+00
  0.8830E+00
  0.8565E+00
  0.8257E+00
  0.7932E+00
  0.7606E+00
  0.7285E+00
  0.6973E+00
  0.6671E+00
  0.6382E+00
  0.6105E+00
  0.5842E+00
  0.5592E+00
  0.5356E+00
  0.5133E+00
  0.4922E+00
  0.4724E+00
  0.4537E+00
  0.4363E+00
  0.4200E+00
  0.4050E+00
  0.3914E+00
  0.3792E+00
  0.3691E+00
  0.3619E+00
  0.3607E+00
  0.3624E+00
  0.3677E+00
  0.3738E+00
  0.3798E+00
  0.3863E+00
  0.3940E+00
  0.4031E+00
  0.4142E+00
  0.4272E+00
  0.4372E+00
  0.4380E+00
  0.4334E+00
  0.4263E+00
  0.4262E+00
  0.4326E+00
  0.4475E+00
  0.4644E+00
  0.4818E+00
  0.5018E+00
  0.5182E+00
  0.5112E+00
  0.4223E+00
  0.2916E+00
  0.2200E+00
  0.9214E+00
  0.9214E+00
  0.9214E+00
  0.9214E+00
  0.9213E+00
  0.9213E+00
  0.9211E+00
  0.9204E+00
  0.9183E+00
  0.9126E+00
  0.9009E+00
  0.8814E+00
  0.8550E+00
  0.8243E+00
  0.7918E+00
  0.7592E+00
  0.7271E+00
  0.6959E+00
  0.6658E+00
  0.6369E+00
  0.6092E+00
  0.5829E+00
  0.5579E+00
  0.5343E+00
  0.5120E+00
  0.4909E+00
  0.4710E+00
  0.4524E+00
  0.4349E+00
  0.4186E+00
  0.4036E+00
  0.3899E+00
  0.3777E+00
  0.3675E+00
  0.3602E+00
  0.3588E+00
  0.3605E+00
  0.3655E+00
  0.3716E+00
  0.3778E+00
  0.3845E+00
  0.3928E+00
  0.4033E+00
  0.4161E+00
  0.4310E+00
  0.4415E+00
  0.4418E+00
  0.4357E+00
  0.4277E+00
  0.4273E+00
  0.4339E+00
  0.4487E+00
  0.4653E+00
  0.4828E+00
  0.5023E+00
  0.5175E+00
  0.5072E+00
  0.4109E+00
  0.2842E+00
  0.2173E+00
  0.9184E+00
  0.9184E+00
  0.9184E+00
  0.9184E+00
  0.9184E+00
  0.9183E+00
  0.9182E+00
  0.9175E+00
  0.9154E+00
  0.9098E+00
  0.8983E+00
  0.8790E+00
  0.8528E+00
  0.8222E+00
  0.7898E+00
  0.7572E+00
  0.7251E+00
  0.6939E+00
  0.6638E+00
  0.6349E+00
  0.6072E+00
  0.5809E+00
  0.5559E+00
  0.5323E+00
  0.5099E+00
  0.4889E+00
  0.4690E+00
  0.4503E+00
  0.4328E+00
  0.4164E+00
  0.4014E+00
  0.3876E+00
  0.3754E+00
  0.3651E+00
  0.3576E+00
  0.3559E+00
  0.3574E+00
  0.3623E+00
  0.3682E+00
  0.3745E+00
  0.3818E+00
  0.3913E+00
  0.4036E+00
  0.4191E+00
  0.4364E+00
  0.4470E+00
  0.4465E+00
  0.4386E+00
  0.4294E+00
  0.4290E+00
  0.4358E+00
  0.4506E+00
  0.4667E+00
  0.4840E+00
  0.5036E+00
  0.5168E+00
  0.5003E+00
  0.3939E+00
  0.2736E+00
  0.2137E+00
  0.9143E+00
  0.9143E+00
  0.9143E+00
  0.9143E+00
  0.9143E+00
  0.9142E+00
  0.9141E+00
  0.9134E+00
  0.9114E+00
  0.9060E+00
  0.8947E+00
  0.8757E+00
  0.8497E+00
  0.8192E+00
  0.7869E+00
  0.7543E+00
  0.7223E+00
  0.6911E+00
  0.6610E+00
  0.6321E+00
  0.6044E+00
  0.5781E+00
  0.5531E+00
  0.5295E+00
  0.5071E+00
  0.4860E+00
  0.4661E+00
  0.4474E+00
  0.4298E+00
  0.4134E+00
  0.3983E+00
  0.3844E+00
  0.3721E+00
  0.3616E+00
  0.3540E+00
  0.3517E+00
  0.3531E+00
  0.3575E+00
  0.3633E+00
  0.3699E+00
  0.3782E+00
  0.3893E+00
  0.4044E+00
  0.4232E+00
  0.4430E+00
  0.4526E+00
  0.4510E+00
  0.4412E+00
  0.4310E+00
  0.4306E+00
  0.4379E+00
  0.4526E+00
  0.4682E+00
  0.4851E+00
  0.5045E+00
  0.5148E+00
  0.4887E+00
  0.3710E+00
  0.2610E+00
  0.2099E+00
  0.9090E+00
  0.9090E+00
  0.9090E+00
  0.9090E+00
  0.9090E+00
  0.9089E+00
  0.9088E+00
  0.9082E+00
  0.9062E+00
  0.9010E+00
  0.8900E+00
  0.8713E+00
  0.8456E+00
  0.8153E+00
  0.7831E+00
  0.7506E+00
  0.7186E+00
  0.6875E+00
  0.6574E+00
  0.6285E+00
  0.6008E+00
  0.5745E+00
  0.5495E+00
  0.5258E+00
  0.5034E+00
  0.4822E+00
  0.4622E+00
  0.4434E+00
  0.4258E+00
  0.4093E+00
  0.3940E+00
  0.3800E+00
  0.3675E+00
  0.3567E+00
  0.3492E+00
  0.3459E+00
  0.3469E+00
  0.3510E+00
  0.3566E+00
  0.3638E+00
  0.3736E+00
  0.3875E+00
  0.4068E+00
  0.4296E+00
  0.4512E+00
  0.4576E+00
  0.4544E+00
  0.4420E+00
  0.4315E+00
  0.4316E+00
  0.4398E+00
  0.4543E+00
  0.4693E+00
  0.4863E+00
  0.5048E+00
  0.5104E+00
  0.4695E+00
  0.3454E+00
  0.2476E+00
  0.2064E+00
  0.9021E+00
  0.9021E+00
  0.9021E+00
  0.9021E+00
  0.9021E+00
  0.9021E+00
  0.9020E+00
  0.9014E+00
  0.8995E+00
  0.8946E+00
  0.8839E+00
  0.8657E+00
  0.8403E+00
  0.8103E+00
  0.7782E+00
  0.7458E+00
  0.7138E+00
  0.6827E+00
  0.6526E+00
  0.6237E+00
  0.5960E+00
  0.5696E+00
  0.5446E+00
  0.5208E+00
  0.4984E+00
  0.4771E+00
  0.4570E+00
  0.4381E+00
  0.4203E+00
  0.4036E+00
  0.3881E+00
  0.3739E+00
  0.3612E+00
  0.3501E+00
  0.3422E+00
  0.3381E+00
  0.3388E+00
  0.3424E+00
  0.3480E+00
  0.3565E+00
  0.3691E+00
  0.3886E+00
  0.4134E+00
  0.4397E+00
  0.4596E+00
  0.4613E+00
  0.4547E+00
  0.4400E+00
  0.4305E+00
  0.4315E+00
  0.4409E+00
  0.4550E+00
  0.4696E+00
  0.4870E+00
  0.5041E+00
  0.5032E+00
  0.4418E+00
  0.3184E+00
  0.2345E+00
  0.2037E+00
  0.8933E+00
  0.8933E+00
  0.8933E+00
  0.8933E+00
  0.8933E+00
  0.8933E+00
  0.8932E+00
  0.8926E+00
  0.8909E+00
  0.8862E+00
  0.8760E+00
  0.8583E+00
  0.8334E+00
  0.8036E+00
  0.7717E+00
  0.7393E+00
  0.7074E+00
  0.6763E+00
  0.6462E+00
  0.6172E+00
  0.5895E+00
  0.5631E+00
  0.5380E+00
  0.5141E+00
  0.4915E+00
  0.4701E+00
  0.4499E+00
  0.4308E+00
  0.4128E+00
  0.3959E+00
  0.3802E+00
  0.3658E+00
  0.3527E+00
  0.3413E+00
  0.3329E+00
  0.3281E+00
  0.3286E+00
  0.3317E+00
  0.3382E+00
  0.3497E+00
  0.3691E+00
  0.3949E+00
  0.4237E+00
  0.4501E+00
  0.4629E+00
  0.4616E+00
  0.4510E+00
  0.4351E+00
  0.4279E+00
  0.4303E+00
  0.4410E+00
  0.4548E+00
  0.4696E+00
  0.4876E+00
  0.5013E+00
  0.4914E+00
  0.4066E+00
  0.2916E+00
  0.2230E+00
  0.2019E+00
  0.8818E+00
  0.8818E+00
  0.8818E+00
  0.8818E+00
  0.8818E+00
  0.8818E+00
  0.8817E+00
  0.8812E+00
  0.8796E+00
  0.8752E+00
  0.8655E+00
  0.8484E+00
  0.8240E+00
  0.7946E+00
  0.7629E+00
  0.7307E+00
  0.6988E+00
  0.6677E+00
  0.6376E+00
  0.6086E+00
  0.5808E+00
  0.5543E+00
  0.5291E+00
  0.5052E+00
  0.4824E+00
  0.4609E+00
  0.4405E+00
  0.4212E+00
  0.4030E+00
  0.3860E+00
  0.3700E+00
  0.3553E+00
  0.3421E+00
  0.3302E+00
  0.3214E+00
  0.3162E+00
  0.3165E+00
  0.3200E+00
  0.3290E+00
  0.3489E+00
  0.3759E+00
  0.4064E+00
  0.4349E+00
  0.4571E+00
  0.4620E+00
  0.4582E+00
  0.4440E+00
  0.4282E+00
  0.4246E+00
  0.4287E+00
  0.4406E+00
  0.4543E+00
  0.4699E+00
  0.4877E+00
  0.4959E+00
  0.4708E+00
  0.3672E+00
  0.2669E+00
  0.2138E+00
  0.2009E+00
  0.8668E+00
  0.8668E+00
  0.8668E+00
  0.8668E+00
  0.8668E+00
  0.8668E+00
  0.8667E+00
  0.8663E+00
  0.8648E+00
  0.8607E+00
  0.8516E+00
  0.8353E+00
  0.8116E+00
  0.7827E+00
  0.7512E+00
  0.7191E+00
  0.6874E+00
  0.6564E+00
  0.6263E+00
  0.5973E+00
  0.5695E+00
  0.5430E+00
  0.5177E+00
  0.4936E+00
  0.4708E+00
  0.4492E+00
  0.4287E+00
  0.4093E+00
  0.3910E+00
  0.3738E+00
  0.3577E+00
  0.3429E+00
  0.3295E+00
  0.3173E+00
  0.3082E+00
  0.3032E+00
  0.3039E+00
  0.3091E+00
  0.3276E+00
  0.3559E+00
  0.3882E+00
  0.4187E+00
  0.4435E+00
  0.4586E+00
  0.4591E+00
  0.4513E+00
  0.4347E+00
  0.4214E+00
  0.4209E+00
  0.4277E+00
  0.4407E+00
  0.4546E+00
  0.4710E+00
  0.4869E+00
  0.4869E+00
  0.4381E+00
  0.3291E+00
  0.2453E+00
  0.2073E+00
  0.2004E+00
  0.8480E+00
  0.8480E+00
  0.8480E+00
  0.8480E+00
  0.8480E+00
  0.8479E+00
  0.8478E+00
  0.8475E+00
  0.8462E+00
  0.8424E+00
  0.8340E+00
  0.8185E+00
  0.7956E+00
  0.7673E+00
  0.7363E+00
  0.7045E+00
  0.6729E+00
  0.6420E+00
  0.6121E+00
  0.5832E+00
  0.5554E+00
  0.5289E+00
  0.5037E+00
  0.4797E+00
  0.4569E+00
  0.4352E+00
  0.4147E+00
  0.3954E+00
  0.3771E+00
  0.3599E+00
  0.3439E+00
  0.3290E+00
  0.3155E+00
  0.3035E+00
  0.2930E+00
  0.2909E+00
  0.2931E+00
  0.3072E+00
  0.3354E+00
  0.3705E+00
  0.4037E+00
  0.4293E+00
  0.4488E+00
  0.4569E+00
  0.4545E+00
  0.4416E+00
  0.4238E+00
  0.4160E+00
  0.4181E+00
  0.4283E+00
  0.4416E+00
  0.4560E+00
  0.4726E+00
  0.4830E+00
  0.4718E+00
  0.3958E+00
  0.2939E+00
  0.2277E+00
  0.2034E+00
  0.2001E+00
  0.8253E+00
  0.8253E+00
  0.8253E+00
  0.8253E+00
  0.8253E+00
  0.8253E+00
  0.8252E+00
  0.8248E+00
  0.8237E+00
  0.8204E+00
  0.8126E+00
  0.7981E+00
  0.7762E+00
  0.7487E+00
  0.7182E+00
  0.6868E+00
  0.6556E+00
  0.6250E+00
  0.5953E+00
  0.5666E+00
  0.5390E+00
  0.5127E+00
  0.4876E+00
  0.4638E+00
  0.4411E+00
  0.4197E+00
  0.3993E+00
  0.3801E+00
  0.3620E+00
  0.3450E+00
  0.3292E+00
  0.3145E+00
  0.3009E+00
  0.2888E+00
  0.2795E+00
  0.2799E+00
  0.2908E+00
  0.3160E+00
  0.3524E+00
  0.3890E+00
  0.4174E+00
  0.4373E+00
  0.4518E+00
  0.4537E+00
  0.4474E+00
  0.4298E+00
  0.4142E+00
  0.4125E+00
  0.4178E+00
  0.4304E+00
  0.4439E+00
  0.4586E+00
  0.4729E+00
  0.4755E+00
  0.4444E+00
  0.3503E+00
  0.2636E+00
  0.2150E+00
  0.2014E+00
  0.2000E+00
  0.7996E+00
  0.7996E+00
  0.7996E+00
  0.7996E+00
  0.7996E+00
  0.7996E+00
  0.7995E+00
  0.7992E+00
  0.7982E+00
  0.7953E+00
  0.7883E+00
  0.7748E+00
  0.7541E+00
  0.7275E+00
  0.6978E+00
  0.6670E+00
  0.6362E+00
  0.6060E+00
  0.5767E+00
  0.5484E+00
  0.5212E+00
  0.4951E+00
  0.4704E+00
  0.4468E+00
  0.4245E+00
  0.4034E+00
  0.3833E+00
  0.3645E+00
  0.3467E+00
  0.3300E+00
  0.3145E+00
  0.2998E+00
  0.2867E+00
  0.2735E+00
  0.2712E+00
  0.2779E+00
  0.2995E+00
  0.3349E+00
  0.3737E+00
  0.4049E+00
  0.4265E+00
  0.4430E+00
  0.4518E+00
  0.4499E+00
  0.4366E+00
  0.4172E+00
  0.4088E+00
  0.4109E+00
  0.4207E+00
  0.4340E+00
  0.4473E+00
  0.4613E+00
  0.4702E+00
  0.4627E+00
  0.4021E+00
  0.3086E+00
  0.2391E+00
  0.2070E+00
  0.2005E+00
  0.2000E+00
  0.7723E+00
  0.7723E+00
  0.7723E+00
  0.7723E+00
  0.7723E+00
  0.7723E+00
  0.7722E+00
  0.7720E+00
  0.7711E+00
  0.7686E+00
  0.7623E+00
  0.7499E+00
  0.7305E+00
  0.7050E+00
  0.6762E+00
  0.6460E+00
  0.6159E+00
  0.5862E+00
  0.5574E+00
  0.5296E+00
  0.5029E+00
  0.4773E+00
  0.4530E+00
  0.4299E+00
  0.4080E+00
  0.3873E+00
  0.3677E+00
  0.3492E+00
  0.3318E+00
  0.3155E+00
  0.3001E+00
  0.2862E+00
  0.2706E+00
  0.2656E+00
  0.2702E+00
  0.2875E+00
  0.3208E+00
  0.3614E+00
  0.3952E+00
  0.4172E+00
  0.4330E+00
  0.4462E+00
  0.4488E+00
  0.4416E+00
  0.4222E+00
  0.4073E+00
  0.4066E+00
  0.4125E+00
  0.4255E+00
  0.4385E+00
  0.4510E+00
  0.4621E+00
  0.4633E+00
  0.4362E+00
  0.3541E+00
  0.2725E+00
  0.2211E+00
  0.2028E+00
  0.2001E+00
  0.2000E+00
  0.7452E+00
  0.7452E+00
  0.7452E+00
  0.7452E+00
  0.7452E+00
  0.7452E+00
  0.7451E+00
  0.7449E+00
  0.7442E+00
  0.7420E+00
  0.7365E+00
  0.7252E+00
  0.7070E+00
  0.6828E+00
  0.6549E+00
  0.6255E+00
  0.5960E+00
  0.5670E+00
  0.5387E+00
  0.5115E+00
  0.4853E+00
  0.4602E+00
  0.4364E+00
  0.4138E+00
  0.3924E+00
  0.3721E+00
  0.3530E+00
  0.3350E+00
  0.3179E+00
  0.3018E+00
  0.2869E+00
  0.2707E+00
  0.2636E+00
  0.2664E+00
  0.2805E+00
  0.3087E+00
  0.3476E+00
  0.3866E+00
  0.4132E+00
  0.4290E+00
  0.4410E+00
  0.4461E+00
  0.4427E+00
  0.4264E+00
  0.4084E+00
  0.4037E+00
  0.4070E+00
  0.4183E+00
  0.4313E+00
  0.4430E+00
  0.4536E+00
  0.4589E+00
  0.4494E+00
  0.3928E+00
  0.3093E+00
  0.2438E+00
  0.2098E+00
  0.2009E+00
  0.2000E+00
  0.2000E+00
  0.7199E+00
  0.7199E+00
  0.7199E+00
  0.7199E+00
  0.7199E+00
  0.7199E+00
  0.7198E+00
  0.7197E+00
  0.7191E+00
  0.7172E+00
  0.7123E+00
  0.7021E+00
  0.6852E+00
  0.6621E+00
  0.6351E+00
  0.6065E+00
  0.5777E+00
  0.5494E+00
  0.5217E+00
  0.4951E+00
  0.4694E+00
  0.4449E+00
  0.4216E+00
  0.3995E+00
  0.3785E+00
  0.3586E+00
  0.3398E+00
  0.3220E+00
  0.3054E+00
  0.2895E+00
  0.2737E+00
  0.2658E+00
  0.2666E+00
  0.2759E+00
  0.3022E+00
  0.3394E+00
  0.3747E+00
  0.4017E+00
  0.4204E+00
  0.4357E+00
  0.4441E+00
  0.4427E+00
  0.4297E+00
  0.4103E+00
  0.4023E+00
  0.4038E+00
  0.4125E+00
  0.4252E+00
  0.4365E+00
  0.4462E+00
  0.4531E+00
  0.4511E+00
  0.4186E+00
  0.3438E+00
  0.2710E+00
  0.2230E+00
  0.2038E+00
  0.2003E+00
  0.2000E+00
  0.2000E+00
  0.6996E+00
  0.6996E+00
  0.6996E+00
  0.6996E+00
  0.6996E+00
  0.6996E+00
  0.6995E+00
  0.6994E+00
  0.6989E+00
  0.6973E+00
  0.6930E+00
  0.6839E+00
  0.6682E+00
  0.6465E+00
  0.6205E+00
  0.5927E+00
  0.5644E+00
  0.5365E+00
  0.5092E+00
  0.4829E+00
  0.4576E+00
  0.4335E+00
  0.4104E+00
  0.3885E+00
  0.3678E+00
  0.3482E+00
  0.3296E+00
  0.3121E+00
  0.2946E+00
  0.2800E+00
  0.2711E+00
  0.2706E+00
  0.2801E+00
  0.3021E+00
  0.3335E+00
  0.3717E+00
  0.3990E+00
  0.4134E+00
  0.4259E+00
  0.4369E+00
  0.4398E+00
  0.4316E+00
  0.4135E+00
  0.4032E+00
  0.4031E+00
  0.4085E+00
  0.4201E+00
  0.4309E+00
  0.4400E+00
  0.4469E+00
  0.4484E+00
  0.4319E+00
  0.3722E+00
  0.2988E+00
  0.2411E+00
  0.2102E+00
  0.2012E+00
  0.2001E+00
  0.2000E+00
  0.2000E+00
  0.6882E+00
  0.6882E+00
  0.6882E+00
  0.6882E+00
  0.6882E+00
  0.6882E+00
  0.6882E+00
  0.6881E+00
  0.6876E+00
  0.6862E+00
  0.6823E+00
  0.6741E+00
  0.6595E+00
  0.6386E+00
  0.6132E+00
  0.5857E+00
  0.5576E+00
  0.5298E+00
  0.5026E+00
  0.4762E+00
  0.4509E+00
  0.4266E+00
  0.4035E+00
  0.3816E+00
  0.3609E+00
  0.3413E+00
  0.3231E+00
  0.3064E+00
  0.2922E+00
  0.2801E+00
  0.2785E+00
  0.2871E+00
  0.3088E+00
  0.3393E+00
  0.3716E+00
  0.3986E+00
  0.4160E+00
  0.4267E+00
  0.4344E+00
  0.4367E+00
  0.4311E+00
  0.4161E+00
  0.4056E+00
  0.4044E+00
  0.4082E+00
  0.4176E+00
  0.4268E+00
  0.4343E+00
  0.4410E+00
  0.4445E+00
  0.4364E+00
  0.3929E+00
  0.3238E+00
  0.2612E+00
  0.2204E+00
  0.2037E+00
  0.2003E+00
  0.2000E+00
  0.2000E+00
  0.2000E+00
  0.6865E+00
  0.6865E+00
  0.6865E+00
  0.6865E+00
  0.6865E+00
  0.6865E+00
  0.6865E+00
  0.6864E+00
  0.6861E+00
  0.6850E+00
  0.6816E+00
  0.6738E+00
  0.6598E+00
  0.6392E+00
  0.6139E+00
  0.5864E+00
  0.5582E+00
  0.5303E+00
  0.5029E+00
  0.4764E+00
  0.4509E+00
  0.4266E+00
  0.4033E+00
  0.3813E+00
  0.3605E+00
  0.3410E+00
  0.3229E+00
  0.3068E+00
  0.2940E+00
  0.2914E+00
  0.2991E+00
  0.3209E+00
  0.3475E+00
  0.3747E+00
  0.3992E+00
  0.4161E+00
  0.4273E+00
  0.4369E+00
  0.4381E+00
  0.4333E+00
  0.4187E+00
  0.4079E+00
  0.4066E+00
  0.4099E+00
  0.4176E+00
  0.4247E+00
  0.4300E+00
  0.4354E+00
  0.4396E+00
  0.4360E+00
  0.4056E+00
  0.3442E+00
  0.2807E+00
  0.2332E+00
  0.2084E+00
  0.2011E+00
  0.2001E+00
  0.2000E+00
  0.2000E+00
  0.2000E+00
  0.6868E+00
  0.6868E+00
  0.6868E+00
  0.6868E+00
  0.6868E+00
  0.6868E+00
  0.6867E+00
  0.6867E+00
  0.6864E+00
  0.6853E+00
  0.6824E+00
  0.6754E+00
  0.6622E+00
  0.6424E+00
  0.6176E+00
  0.5900E+00
  0.5617E+00
  0.5336E+00
  0.5060E+00
  0.4792E+00
  0.4534E+00
  0.4287E+00
  0.4052E+00
  0.3830E+00
  0.3622E+00
  0.3428E+00
  0.3255E+00
  0.3114E+00
  0.3083E+00
  0.3159E+00
  0.3351E+00
  0.3614E+00
  0.3865E+00
  0.4016E+00
  0.4132E+00
  0.4266E+00
  0.4369E+00
  0.4394E+00
  0.4361E+00
  0.4225E+00
  0.4105E+00
  0.4084E+00
  0.4115E+00
  0.4187E+00
  0.4247E+00
  0.4281E+00
  0.4315E+00
  0.4351E+00
  0.4337E+00
  0.4120E+00
  0.3592E+00
  0.2978E+00
  0.2466E+00
  0.2151E+00
  0.2028E+00
  0.2003E+00
  0.2000E+00
  0.2000E+00
  0.2000E+00
  0.2000E+00
  0.6879E+00
  0.6879E+00
  0.6879E+00
  0.6879E+00
  0.6879E+00
  0.6879E+00
  0.6879E+00
  0.6879E+00
  0.6876E+00
  0.6867E+00
  0.6840E+00
  0.6777E+00
  0.6654E+00
  0.6464E+00
  0.6221E+00
  0.5948E+00
  0.5664E+00
  0.5380E+00
  0.5102E+00
  0.4831E+00
  0.4570E+00
  0.4321E+00
  0.4085E+00
  0.3865E+00
  0.3660E+00
  0.3480E+00
  0.3335E+00
  0.3296E+00
  0.3358E+00
  0.3526E+00
  0.3737E+00
  0.3953E+00
  0.4132E+00
  0.4203E+00
  0.4258E+00
  0.4346E+00
  0.4382E+00
  0.4360E+00
  0.4238E+00
  0.4121E+00
  0.4099E+00
  0.4124E+00
  0.4189E+00
  0.4246E+00
  0.4274E+00
  0.4293E+00
  0.4322E+00
  0.4317E+00
  0.4153E+00
  0.3692E+00
  0.3113E+00
  0.2592E+00
  0.2229E+00
  0.2055E+00
  0.2008E+00
  0.2001E+00
  0.2000E+00
  0.2000E+00
  0.2000E+00
  0.2000E+00
  0.6897E+00
  0.6897E+00
  0.6897E+00
  0.6897E+00
  0.6897E+00
  0.6897E+00
  0.6897E+00
  0.6897E+00
  0.6895E+00
  0.6887E+00
  0.6863E+00
  0.6805E+00
  0.6690E+00
  0.6507E+00
  0.6268E+00
  0.5996E+00
  0.5711E+00
  0.5425E+00
  0.5144E+00
  0.4871E+00
  0.4609E+00
  0.4361E+00
  0.4130E+00
  0.3918E+00
  0.3730E+00
  0.3583E+00
  0.3529E+00
  0.3575E+00
  0.3711E+00
  0.3891E+00
  0.4048E+00
  0.4172E+00
  0.4291E+00
  0.4355E+00
  0.4372E+00
  0.4366E+00
  0.4333E+00
  0.4225E+00
  0.4120E+00
  0.4105E+00
  0.4128E+00
  0.4187E+00
  0.4237E+00
  0.4262E+00
  0.4278E+00
  0.4302E+00
  0.4304E+00
  0.4176E+00
  0.3762E+00
  0.3214E+00
  0.2697E+00
  0.2309E+00
  0.2092E+00
  0.2016E+00
  0.2002E+00
  0.2000E+00
  0.2000E+00
  0.2000E+00
  0.2000E+00
  0.2000E+00
  0.6920E+00
  0.6920E+00
  0.6920E+00
  0.6920E+00
  0.6920E+00
  0.6920E+00
  0.6920E+00
  0.6919E+00
  0.6918E+00
  0.6911E+00
  0.6890E+00
  0.6837E+00
  0.6730E+00
  0.6554E+00
  0.6318E+00
  0.6047E+00
  0.5759E+00
  0.5471E+00
  0.5188E+00
  0.4916E+00
  0.4656E+00
  0.4414E+00
  0.4192E+00
  0.3997E+00
  0.3844E+00
  0.3766E+00
  0.3796E+00
  0.3897E+00
  0.4042E+00
  0.4174E+00
  0.4263E+00
  0.4332E+00
  0.4410E+00
  0.4442E+00
  0.4395E+00
  0.4312E+00
  0.4185E+00
  0.4103E+00
  0.4100E+00
  0.4126E+00
  0.4183E+00
  0.4230E+00
  0.4251E+00
  0.4264E+00
  0.4285E+00
  0.4290E+00
  0.4181E+00
  0.3808E+00
  0.3289E+00
  0.2780E+00
  0.2380E+00
  0.2132E+00
  0.2029E+00
  0.2004E+00
  0.2000E+00
  0.2000E+00
  0.2000E+00
  0.2000E+00
  0.2000E+00
  0.2000E+00
  0.6949E+00
  0.6949E+00
  0.6949E+00
  0.6949E+00
  0.6949E+00
  0.6949E+00
  0.6948E+00
  0.6948E+00
  0.6947E+00
  0.6941E+00
  0.6923E+00
  0.6875E+00
  0.6775E+00
  0.6605E+00
  0.6374E+00
  0.6102E+00
  0.5814E+00
  0.5524E+00
  0.5243E+00
  0.4974E+00
  0.4721E+00
  0.4489E+00
  0.4285E+00
  0.4120E+00
  0.4016E+00
  0.4027E+00
  0.4095E+00
  0.4198E+00
  0.4296E+00
  0.4373E+00
  0.4431E+00
  0.4463E+00
  0.4462E+00
  0.4429E+00
  0.4317E+00
  0.4163E+00
  0.4078E+00
  0.4085E+00
  0.4123E+00
  0.4186E+00
  0.4229E+00
  0.4247E+00
  0.4256E+00
  0.4273E+00
  0.4277E+00
  0.4176E+00
  0.3824E+00
  0.3336E+00
  0.2844E+00
  0.2439E+00
  0.2172E+00
  0.2045E+00
  0.2007E+00
  0.2001E+00
  0.2000E+00
  0.2000E+00
  0.2000E+00
  0.2000E+00
  0.2000E+00
  0.2000E+00
  0.6990E+00
  0.6990E+00
  0.6990E+00
  0.6990E+00
  0.6990E+00
  0.6990E+00
  0.6990E+00
  0.6990E+00
  0.6989E+00
  0.6984E+00
  0.6967E+00
  0.6924E+00
  0.6829E+00
  0.6665E+00
  0.6436E+00
  0.6165E+00
  0.5876E+00
  0.5586E+00
  0.5307E+00
  0.5045E+00
  0.4803E+00
  0.4591E+00
  0.4417E+00
  0.4296E+00
  0.4262E+00
  0.4305E+00
  0.4376E+00
  0.4443E+00
  0.4492E+00
  0.4519E+00
  0.4517E+00
  0.4486E+00
  0.4428E+00
  0.4295E+00
  0.4137E+00
  0.4057E+00
  0.4067E+00
  0.4115E+00
  0.4188E+00
  0.4237E+00
  0.4251E+00
  0.4256E+00
  0.4268E+00
  0.4269E+00
  0.4172E+00
  0.3827E+00
  0.3356E+00
  0.2884E+00
  0.2486E+00
  0.2207E+00
  0.2061E+00
  0.2012E+00
  0.2002E+00
  0.2000E+00
  0.2000E+00
  0.2000E+00
  0.2000E+00
  0.2000E+00
  0.2000E+00
  0.2000E+00
  0.7028E+00
  0.7028E+00
  0.7028E+00
  0.7028E+00
  0.7028E+00
  0.7028E+00
  0.7028E+00
  0.7028E+00
  0.7027E+00
  0.7023E+00
  0.7008E+00
  0.6968E+00
  0.6878E+00
  0.6719E+00
  0.6494E+00
  0.6222E+00
  0.5935E+00
  0.5650E+00
  0.5379E+00
  0.5129E+00
  0.4909E+00
  0.4727E+00
  0.4590E+00
  0.4509E+00
  0.4520E+00
  0.4561E+00
  0.4594E+00
  0.4593E+00
  0.4571E+00
  0.4536E+00
  0.4498E+00
  0.4417E+00
  0.4262E+00
  0.4103E+00
  0.4032E+00
  0.4045E+00
  0.4099E+00
  0.4186E+00
  0.4246E+00
  0.4262E+00
  0.4264E+00
  0.4273E+00
  0.4269E+00
  0.4169E+00
  0.3827E+00
  0.3360E+00
  0.2903E+00
  0.2518E+00
  0.2236E+00
  0.2077E+00
  0.2017E+00
  0.2002E+00
  0.2000E+00
  0.2000E+00
  0.2000E+00
  0.2000E+00
  0.2000E+00
  0.2000E+00
  0.2000E+00
  0.2000E+00
  0.7035E+00
  0.7035E+00
  0.7035E+00
  0.7035E+00
  0.7035E+00
  0.7035E+00
  0.7035E+00
  0.7035E+00
  0.7034E+00
  0.7030E+00
  0.7016E+00
  0.6978E+00
  0.6894E+00
  0.6743E+00
  0.6524E+00
  0.6262E+00
  0.5984E+00
  0.5712E+00
  0.5458E+00
  0.5233E+00
  0.5044E+00
  0.4893E+00
  0.4781E+00
  0.4722E+00
  0.4706E+00
  0.4680E+00
  0.4638E+00
  0.4598E+00
  0.4546E+00
  0.4473E+00
  0.4365E+00
  0.4225E+00
  0.4082E+00
  0.4023E+00
  0.4031E+00
  0.4082E+00
  0.4176E+00
  0.4247E+00
  0.4274E+00
  0.4278E+00
  0.4285E+00
  0.4277E+00
  0.4172E+00
  0.3827E+00
  0.3360E+00
  0.2905E+00
  0.2532E+00
  0.2256E+00
  0.2091E+00
  0.2022E+00
  0.2004E+00
  0.2000E+00
  0.2000E+00
  0.2000E+00
  0.2000E+00
  0.2000E+00
  0.2000E+00
  0.2000E+00
  0.2000E+00
  0.2000E+00
  0.7018E+00
  0.7018E+00
  0.7018E+00
  0.7018E+00
  0.7018E+00
  0.7018E+00
  0.7018E+00
  0.7017E+00
  0.7016E+00
  0.7012E+00
  0.6999E+00
  0.6962E+00
  0.6879E+00
  0.6730E+00
  0.6516E+00
  0.6259E+00
  0.5988E+00
  0.5730E+00
  0.5496E+00
  0.5293E+00
  0.5121E+00
  0.4977E+00
  0.4861E+00
  0.4774E+00
  0.4718E+00
  0.4663E+00
  0.4598E+00
  0.4518E+00
  0.4418E+00
  0.4298E+00
  0.4174E+00
  0.4077E+00
  0.4037E+00
  0.4039E+00
  0.4085E+00
  0.4176E+00
  0.4247E+00
  0.4282E+00
  0.4295E+00
  0.4303E+00
  0.4290E+00
  0.4177E+00
  0.3827E+00
  0.3360E+00
  0.2905E+00
  0.2533E+00
  0.2265E+00
  0.2101E+00
  0.2027E+00
  0.2005E+00
  0.2001E+00
  0.2000E+00
  0.2000E+00
  0.2000E+00
  0.2000E+00
  0.2000E+00
  0.2000E+00
  0.2000E+00
  0.2000E+00
  0.2000E+00
  0.6888E+00
  0.6888E+00
  0.6888E+00
  0.6888E+00
  0.6888E+00
  0.6888E+00
  0.6888E+00
  0.6888E+00
  0.6887E+00
  0.6883E+00
  0.6870E+00
  0.6835E+00
  0.6756E+00
  0.6614E+00
  0.6413E+00
  0.6173E+00
  0.5923E+00
  0.5682E+00
  0.5463E+00
  0.5268E+00
  0.5099E+00
  0.4954E+00
  0.4834E+00
  0.4735E+00
  0.4644E+00
  0.4552E+00
  0.4456E+00
  0.4350E+00
  0.4239E+00
  0.4143E+00
  0.4088E+00
  0.4066E+00
  0.4070E+00
  0.4122E+00
  0.4200E+00
  0.4267E+00
  0.4300E+00
  0.4315E+00
  0.4322E+00
  0.4304E+00
  0.4182E+00
  0.3824E+00
  0.3356E+00
  0.2903E+00
  0.2532E+00
  0.2265E+00
  0.2104E+00
  0.2030E+00
  0.2006E+00
  0.2001E+00
  0.2000E+00
  0.2000E+00
  0.2000E+00
  0.2000E+00
  0.2000E+00
  0.2000E+00
  0.2000E+00
  0.2000E+00
  0.2000E+00
  0.2000E+00
  0.6572E+00
  0.6572E+00
  0.6572E+00
  0.6572E+00
  0.6572E+00
  0.6572E+00
  0.6572E+00
  0.6571E+00
  0.6570E+00
  0.6566E+00
  0.6554E+00
  0.6519E+00
  0.6444E+00
  0.6313E+00
  0.6130E+00
  0.5917E+00
  0.5699E+00
  0.5493E+00
  0.5304E+00
  0.5131E+00
  0.4974E+00
  0.4832E+00
  0.4708E+00
  0.4596E+00
  0.4491E+00
  0.4391E+00
  0.4298E+00
  0.4218E+00
  0.4160E+00
  0.4126E+00
  0.4108E+00
  0.4126E+00
  0.4182E+00
  0.4252E+00
  0.4309E+00
  0.4343E+00
  0.4354E+00
  0.4352E+00
  0.4319E+00
  0.4175E+00
  0.3807E+00
  0.3336E+00
  0.2884E+00
  0.2518E+00
  0.2256E+00
  0.2101E+00
  0.2030E+00
  0.2007E+00
  0.2001E+00
  0.2000E+00
  0.2000E+00
  0.2000E+00
  0.2000E+00
  0.2000E+00
  0.2000E+00
  0.2000E+00
  0.2000E+00
  0.2000E+00
  0.2000E+00
  0.2000E+00
  0.6222E+00
  0.6222E+00
  0.6222E+00
  0.6222E+00
  0.6222E+00
  0.6222E+00
  0.6222E+00
  0.6221E+00
  0.6220E+00
  0.6216E+00
  0.6204E+00
  0.6170E+00
  0.6100E+00
  0.5981E+00
  0.5819E+00
  0.5637E+00
  0.5455E+00
  0.5280E+00
  0.5115E+00
  0.4961E+00
  0.4817E+00
  0.4689E+00
  0.4575E+00
  0.4475E+00
  0.4388E+00
  0.4317E+00
  0.4261E+00
  0.4212E+00
  0.4181E+00
  0.4179E+00
  0.4206E+00
  0.4255E+00
  0.4313E+00
  0.4365E+00
  0.4399E+00
  0.4411E+00
  0.4396E+00
  0.4338E+00
  0.4152E+00
  0.3761E+00
  0.3289E+00
  0.2844E+00
  0.2486E+00
  0.2236E+00
  0.2091E+00
  0.2027E+00
  0.2006E+00
  0.2001E+00
  0.2000E+00
  0.2000E+00
  0.2000E+00
  0.2000E+00
  0.2000E+00
  0.2000E+00
  0.2000E+00
  0.2000E+00
  0.2000E+00
  0.2000E+00
  0.2000E+00
  0.2000E+00
  0.5984E+00
  0.5984E+00
  0.5984E+00
  0.5984E+00
  0.5984E+00
  0.5984E+00
  0.5984E+00
  0.5984E+00
  0.5983E+00
  0.5979E+00
  0.5966E+00
  0.5934E+00
  0.5867E+00
  0.5759E+00
  0.5618E+00
  0.5466E+00
  0.5314E+00
  0.5165E+00
  0.5023E+00
  0.4889E+00
  0.4766E+00
  0.4655E+00
  0.4556E+00
  0.4468E+00
  0.4395E+00
  0.4339E+00
  0.4300E+00
  0.4280E+00
  0.4284E+00
  0.4304E+00
  0.4340E+00
  0.4385E+00
  0.4429E+00
  0.4463E+00
  0.4471E+00
  0.4444E+00
  0.4360E+00
  0.4120E+00
  0.3692E+00
  0.3214E+00
  0.2780E+00
  0.2439E+00
  0.2207E+00
  0.2077E+00
  0.2022E+00
  0.2005E+00
  0.2001E+00
  0.2000E+00
  0.2000E+00
  0.2000E+00
  0.2000E+00
  0.2000E+00
  0.2000E+00
  0.2000E+00
  0.2000E+00
  0.2000E+00
  0.2000E+00
  0.2000E+00
  0.2000E+00
  0.2000E+00
  0.5926E+00
  0.5926E+00
  0.5926E+00
  0.5926E+00
  0.5926E+00
  0.5926E+00
  0.5926E+00
  0.5926E+00
  0.5925E+00
  0.5921E+00
  0.5909E+00
  0.5879E+00
  0.5819E+00
  0.5722E+00
  0.5595E+00
  0.5453E+00
  0.5309E+00
  0.5168E+00
  0.5034E+00
  0.4908E+00
  0.4794E+00
  0.4694E+00
  0.4607E+00
  0.4536E+00
  0.4482E+00
  0.4443E+00
  0.4419E+00
  0.4410E+00
  0.4417E+00
  0.4439E+00
  0.4473E+00
  0.4511E+00
  0.4534E+00
  0.4530E+00
  0.4484E+00
  0.4364E+00
  0.4056E+00
  0.3593E+00
  0.3113E+00
  0.2697E+00
  0.2380E+00
  0.2172E+00
  0.2061E+00
  0.2017E+00
  0.2004E+00
  0.2001E+00
  0.2000E+00
  0.2000E+00
  0.2000E+00
  0.2000E+00
  0.2000E+00
  0.2000E+00
  0.2000E+00
  0.2000E+00
  0.2000E+00
  0.2000E+00
  0.2000E+00
  0.2000E+00
  0.2000E+00
  0.2000E+00
  0.5926E+00
  0.5926E+00
  0.5926E+00
  0.5926E+00
  0.5926E+00
  0.5926E+00
  0.5926E+00
  0.5926E+00
  0.5925E+00
  0.5921E+00
  0.5909E+00
  0.5880E+00
  0.5823E+00
  0.5731E+00
  0.5614E+00
  0.5487E+00
  0.5359E+00
  0.5233E+00
  0.5112E+00
  0.5001E+00
  0.4900E+00
  0.4811E+00
  0.4731E+00
  0.4667E+00
  0.4615E+00
  0.4577E+00
  0.4554E+00
  0.4550E+00
  0.4560E+00
  0.4587E+00
  0.4611E+00
  0.4620E+00
  0.4589E+00
  0.4511E+00
  0.4320E+00
  0.3929E+00
  0.3443E+00
  0.2978E+00
  0.2592E+00
  0.2309E+00
  0.2132E+00
  0.2045E+00
  0.2012E+00
  0.2002E+00
  0.2000E+00
  0.2000E+00
  0.2000E+00
  0.2000E+00
  0.2000E+00
  0.2000E+00
  0.2000E+00
  0.2000E+00
  0.2000E+00
  0.2000E+00
  0.2000E+00
  0.2000E+00
  0.2000E+00
  0.2000E+00
  0.2000E+00
  0.2000E+00
  0.5945E+00
  0.5945E+00
  0.5945E+00
  0.5945E+00
  0.5945E+00
  0.5945E+00
  0.5945E+00
  0.5945E+00
  0.5944E+00
  0.5940E+00
  0.5930E+00
  0.5905E+00
  0.5854E+00
  0.5775E+00
  0.5673E+00
  0.5560E+00
  0.5445E+00
  0.5330E+00
  0.5221E+00
  0.5118E+00
  0.5024E+00
  0.4940E+00
  0.4864E+00
  0.4802E+00
  0.4753E+00
  0.4721E+00
  0.4709E+00
  0.4714E+00
  0.4726E+00
  0.4729E+00
  0.4703E+00
  0.4633E+00
  0.4494E+00
  0.4185E+00
  0.3720E+00
  0.3237E+00
  0.2807E+00
  0.2466E+00
  0.2229E+00
  0.2092E+00
  0.2029E+00
  0.2007E+00
  0.2002E+00
  0.2000E+00
  0.2000E+00
  0.2000E+00
  0.2000E+00
  0.2000E+00
  0.2000E+00
  0.2000E+00
  0.2000E+00
  0.2000E+00
  0.2000E+00
  0.2000E+00
  0.2000E+00
  0.2000E+00
  0.2000E+00
  0.2000E+00
  0.2000E+00
  0.2000E+00
  0.5994E+00
  0.5994E+00
  0.5994E+00
  0.5994E+00
  0.5994E+00
  0.5994E+00
  0.5994E+00
  0.5994E+00
  0.5993E+00
  0.5990E+00
  0.5981E+00
  0.5959E+00
  0.5915E+00
  0.5845E+00
  0.5755E+00
  0.5652E+00
  0.5546E+00
  0.5440E+00
  0.5338E+00
  0.5243E+00
  0.5155E+00
  0.5076E+00
  0.5008E+00
  0.4956E+00
  0.4918E+00
  0.4897E+00
  0.4886E+00
  0.4870E+00
  0.4831E+00
  0.4754E+00
  0.4626E+00
  0.4360E+00
  0.3927E+00
  0.3439E+00
  0.2987E+00
  0.2612E+00
  0.2332E+00
  0.2151E+00
  0.2055E+00
  0.2016E+00
  0.2004E+00
  0.2001E+00
  0.2000E+00
  0.2000E+00
  0.2000E+00
  0.2000E+00
  0.2000E+00
  0.2000E+00
  0.2000E+00
  0.2000E+00
  0.2000E+00
  0.2000E+00
  0.2000E+00
  0.2000E+00
  0.2000E+00
  0.2000E+00
  0.2000E+00
  0.2000E+00
  0.2000E+00
  0.2000E+00
  0.6057E+00
  0.6057E+00
  0.6057E+00
  0.6057E+00