# vtk DataFile Version 3.0
vtk output
ASCII
DATASET RECTILINEAR_GRID
DIMENSIONS          61          61 1
X_COORDINATES    61 double
  0.0000E+00
  0.1667E+00
  0.3333E+00
  0.5000E+00
  0.6667E+00
  0.8333E+00
  0.1000E+01
  0.1167E+01
  0.1333E+01
  0.1500E+01
  0.1667E+01
  0.1833E+01
  0.2000E+01
  0.2167E+01
  0.2333E+01
  0.2500E+01
  0.2667E+01
  0.2833E+01
  0.3000E+01
  0.3167E+01
  0.3333E+01
  0.3500E+01
  0.3667E+01
  0.3833E+01
  0.4000E+01
  0.4167E+01
  0.4333E+01
  0.4500E+01
  0.4667E+01
  0.4833E+01
  0.5000E+01
  0.5167E+01
  0.5333E+01
  0.5500E+01
  0.5667E+01
  0.5833E+01
  0.6000E+01
  0.6167E+01
  0.6333E+01
  0.6500E+01
  0.6667E+01
  0.6833E+01
  0.7000E+01
  0.7167E+01
  0.7333E+01
  0.7500E+01
  0.7667E+01
  0.7833E+01
  0.8000E+01
  0.8167E+01
  0.8333E+01
  0.8500E+01
  0.8667E+01
  0.8833E+01
  0.9000E+01
  0.9167E+01
  0.9333E+01
  0.9500E+01
  0.9667E+01
  0.9833E+01
  0.1000E+02
Y_COORDINATES    61 double
  0.0000E+00
  0.1667E+00
  0.3333E+00
  0.5000E+00
  0.6667E+00
  0.8333E+00
  0.1000E+01
  0.1167E+01
  0.1333E+01
  0.1500E+01
  0.1667E+01
  0.1833E+01
  0.2000E+01
  0.2167E+01
  0.2333E+01
  0.2500E+01
  0.2667E+01
  0.2833E+01
  0.3000E+01
  0.3167E+01
  0.3333E+01
  0.3500E+01
  0.3667E+01
  0.3833E+01
  0.4000E+01
  0.4167E+01
  0.4333E+01
  0.4500E+01
  0.4667E+01
  0.4833E+01
  0.5000E+01
  0.5167E+01
  0.5333E+01
  0.5500E+01
  0.5667E+01
  0.5833E+01
  0.6000E+01
  0.6167E+01
  0.6333E+01
  0.6500E+01
  0.6667E+01
  0.6833E+01
  0.7000E+01
  0.7167E+01
  0.7333E+01
  0.7500E+01
  0.7667E+01
  0.7833E+01
  0.8000E+01
  0.8167E+01
  0.8333E+01
  0.8500E+01
  0.8667E+01
  0.8833E+01
  0.9000E+01
  0.9167E+01
  0.9333E+01
  0.9500E+01
  0.9667E+01
  0.9833E+01
  0.1000E+02
Z_COORDINATES 1 double
0
CELL_DATA                 3600
FIELD FieldData 4
density 1                 3600 double
  0.2303E+01
  0.2303E+01
  0.2303E+01
  0.2303E+01
  0.2303E+01
  0.2303E+01
  0.2303E+01
  0.2301E+01
  0.2295E+01
  0.2281E+01
  0.2251E+01
  0.2201E+01
  0.2134E+01
  0.2057E+01
  0.1976E+01
  0.1895E+01
  0.1815E+01
  0.1737E+01
  0.1662E+01
  0.1590E+01
  0.1521E+01
  0.1456E+01
  0.1393E+01
  0.1334E+01
  0.1278E+01
  0.1224E+01
  0.1173E+01
  0.1125E+01
  0.1079E+01
  0.1035E+01
  0.9929E+00
  0.9531E+00
  0.9151E+00
  0.8791E+00
  0.8450E+00
  0.8128E+00
  0.7827E+00
  0.7546E+00
  0.7285E+00
  0.7049E+00
  0.6854E+00
  0.6711E+00
  0.6687E+00
  0.6721E+00
  0.6845E+00
  0.7012E+00
  0.7184E+00
  0.7328E+00
  0.7432E+00
  0.7515E+00
  0.7584E+00
  0.7572E+00
  0.7328E+00
  0.6735E+00
  0.6055E+00
  0.5521E+00
  0.5652E+00
  0.6957E+00
  0.1025E+01
  0.1249E+01
  0.2301E+01
  0.2301E+01
  0.2301E+01
  0.2301E+01
  0.2301E+01
  0.2301E+01
  0.2300E+01
  0.2298E+01
  0.2293E+01
  0.2278E+01
  0.2248E+01
  0.2199E+01
  0.2133E+01
  0.2056E+01
  0.1975E+01
  0.1893E+01
  0.1813E+01
  0.1735E+01
  0.1660E+01
  0.1588E+01
  0.1520E+01
  0.1454E+01
  0.1392E+01
  0.1332E+01
  0.1276E+01
  0.1223E+01
  0.1172E+01
  0.1123E+01
  0.1077E+01
  0.1033E+01
  0.9913E+00
  0.9514E+00
  0.9134E+00
  0.8774E+00
  0.8432E+00
  0.8110E+00
  0.7809E+00
  0.7527E+00
  0.7266E+00
  0.7029E+00
  0.6833E+00
  0.6687E+00
  0.6661E+00
  0.6690E+00
  0.6810E+00
  0.6977E+00
  0.7149E+00
  0.7296E+00
  0.7412E+00
  0.7523E+00
  0.7608E+00
  0.7596E+00
  0.7344E+00
  0.6733E+00
  0.6040E+00
  0.5508E+00
  0.5636E+00
  0.6947E+00
  0.1026E+01
  0.1252E+01
  0.2296E+01
  0.2296E+01
  0.2296E+01
  0.2296E+01
  0.2296E+01
  0.2296E+01
  0.2295E+01
  0.2293E+01
  0.2288E+01
  0.2274E+01
  0.2244E+01
  0.2195E+01
  0.2129E+01
  0.2052E+01
  0.1971E+01
  0.1890E+01
  0.1810E+01
  0.1732E+01
  0.1657E+01
  0.1585E+01
  0.1516E+01
  0.1451E+01
  0.1388E+01
  0.1329E+01
  0.1273E+01
  0.1219E+01
  0.1168E+01
  0.1120E+01
  0.1074E+01
  0.1030E+01
  0.9879E+00
  0.9480E+00
  0.9100E+00
  0.8738E+00
  0.8396E+00
  0.8073E+00
  0.7771E+00
  0.7488E+00
  0.7225E+00
  0.6987E+00
  0.6788E+00
  0.6638E+00
  0.6606E+00
  0.6629E+00
  0.6741E+00
  0.6904E+00
  0.7077E+00
  0.7235E+00
  0.7380E+00
  0.7537E+00
  0.7651E+00
  0.7637E+00
  0.7364E+00
  0.6713E+00
  0.6002E+00
  0.5476E+00
  0.5607E+00
  0.6896E+00
  0.1011E+01
  0.1255E+01
  0.2288E+01
  0.2288E+01
  0.2288E+01
  0.2288E+01
  0.2288E+01
  0.2288E+01
  0.2288E+01
  0.2286E+01
  0.2280E+01
  0.2266E+01
  0.2237E+01
  0.2189E+01
  0.2123E+01
  0.2047E+01
  0.1966E+01
  0.1885E+01
  0.1805E+01
  0.1727E+01
  0.1652E+01
  0.1580E+01
  0.1511E+01
  0.1446E+01
  0.1383E+01
  0.1324E+01
  0.1268E+01
  0.1214E+01
  0.1163E+01
  0.1115E+01
  0.1069E+01
  0.1025E+01
  0.9826E+00
  0.9426E+00
  0.9045E+00
  0.8683E+00
  0.8339E+00
  0.8015E+00
  0.7711E+00
  0.7426E+00
  0.7161E+00
  0.6920E+00
  0.6717E+00
  0.6560E+00
  0.6516E+00
  0.6532E+00
  0.6630E+00
  0.6788E+00
  0.6965E+00
  0.7140E+00
  0.7325E+00
  0.7544E+00
  0.7700E+00
  0.7683E+00
  0.7365E+00
  0.6664E+00
  0.5936E+00
  0.5430E+00
  0.5559E+00
  0.6826E+00
  0.9953E+00
  0.1252E+01
  0.2277E+01
  0.2277E+01
  0.2277E+01
  0.2277E+01
  0.2277E+01
  0.2277E+01
  0.2277E+01
  0.2275E+01
  0.2270E+01
  0.2256E+01
  0.2228E+01
  0.2180E+01
  0.2115E+01
  0.2039E+01
  0.1958E+01
  0.1877E+01
  0.1797E+01
  0.1720E+01
  0.1645E+01
  0.1573E+01
  0.1504E+01
  0.1439E+01
  0.1376E+01
  0.1317E+01
  0.1261E+01
  0.1207E+01
  0.1156E+01
  0.1107E+01
  0.1061E+01
  0.1017E+01
  0.9751E+00
  0.9349E+00
  0.8967E+00
  0.8602E+00
  0.8257E+00
  0.7930E+00
  0.7622E+00
  0.7334E+00
  0.7064E+00
  0.6819E+00
  0.6610E+00
  0.6447E+00
  0.6379E+00
  0.6390E+00
  0.6474E+00
  0.6624E+00
  0.6806E+00
  0.7005E+00
  0.7244E+00
  0.7546E+00
  0.7744E+00
  0.7713E+00
  0.7325E+00
  0.6576E+00
  0.5845E+00
  0.5372E+00
  0.5499E+00
  0.6721E+00
  0.9679E+00
  0.1263E+01
  0.2263E+01
  0.2263E+01
  0.2263E+01
  0.2263E+01
  0.2263E+01
  0.2263E+01
  0.2263E+01
  0.2261E+01
  0.2256E+01
  0.2243E+01
  0.2215E+01
  0.2168E+01
  0.2104E+01
  0.2028E+01
  0.1948E+01
  0.1867E+01
  0.1787E+01
  0.1710E+01
  0.1635E+01
  0.1563E+01
  0.1495E+01
  0.1429E+01
  0.1367E+01
  0.1307E+01
  0.1251E+01
  0.1197E+01
  0.1146E+01
  0.1098E+01
  0.1051E+01
  0.1007E+01
  0.9646E+00
  0.9242E+00
  0.8856E+00
  0.8488E+00
  0.8139E+00
  0.7808E+00
  0.7496E+00
  0.7202E+00
  0.6927E+00
  0.6675E+00
  0.6458E+00
  0.6286E+00
  0.6192E+00
  0.6196E+00
  0.6268E+00
  0.6411E+00
  0.6602E+00
  0.6843E+00
  0.7161E+00
  0.7555E+00
  0.7767E+00
  0.7706E+00
  0.7229E+00
  0.6444E+00
  0.5726E+00
  0.5307E+00
  0.5429E+00
  0.6585E+00
  0.9405E+00
  0.1265E+01
  0.2245E+01
  0.2245E+01
  0.2245E+01
  0.2245E+01
  0.2245E+01
  0.2245E+01
  0.2245E+01
  0.2243E+01
  0.2238E+01
  0.2226E+01
  0.2199E+01
  0.2153E+01
  0.2090E+01
  0.2015E+01
  0.1935E+01
  0.1854E+01
  0.1774E+01
  0.1697E+01
  0.1622E+01
  0.1551E+01
  0.1482E+01
  0.1416E+01
  0.1354E+01
  0.1294E+01
  0.1238E+01
  0.1184E+01
  0.1133E+01
  0.1084E+01
  0.1037E+01
  0.9926E+00
  0.9500E+00
  0.9092E+00
  0.8702E+00
  0.8330E+00
  0.7975E+00
  0.7639E+00
  0.7321E+00
  0.7021E+00
  0.6740E+00
  0.6481E+00
  0.6254E+00
  0.6072E+00
  0.5958E+00
  0.5955E+00
  0.6019E+00
  0.6160E+00
  0.6382E+00
  0.6695E+00
  0.7123E+00
  0.7597E+00
  0.7755E+00
  0.7647E+00
  0.7057E+00
  0.6266E+00
  0.5581E+00
  0.5243E+00
  0.5356E+00
  0.6417E+00
  0.9032E+00
  0.1261E+01
  0.2221E+01
  0.2221E+01
  0.2221E+01
  0.2221E+01
  0.2221E+01
  0.2221E+01
  0.2221E+01
  0.2219E+01
  0.2215E+01
  0.2203E+01
  0.2177E+01
  0.2133E+01
  0.2071E+01
  0.1996E+01
  0.1917E+01
  0.1836E+01
  0.1757E+01
  0.1680E+01
  0.1605E+01
  0.1533E+01
  0.1465E+01
  0.1399E+01
  0.1336E+01
  0.1277E+01
  0.1220E+01
  0.1166E+01
  0.1114E+01
  0.1065E+01
  0.1018E+01
  0.9732E+00
  0.9301E+00
  0.8889E+00
  0.8495E+00
  0.8118E+00
  0.7758E+00
  0.7417E+00
  0.7094E+00
  0.6789E+00
  0.6502E+00
  0.6237E+00
  0.6004E+00
  0.5810E+00
  0.5684E+00
  0.5680E+00
  0.5740E+00
  0.5901E+00
  0.6191E+00
  0.6633E+00
  0.7175E+00
  0.7643E+00
  0.7706E+00
  0.7505E+00
  0.6830E+00
  0.6043E+00
  0.5410E+00
  0.5190E+00
  0.5289E+00
  0.6192E+00
  0.8661E+00
  0.1272E+01
  0.2190E+01
  0.2190E+01
  0.2190E+01
  0.2190E+01
  0.2190E+01
  0.2190E+01
  0.2190E+01
  0.2188E+01
  0.2184E+01
  0.2173E+01
  0.2149E+01
  0.2106E+01
  0.2045E+01
  0.1972E+01
  0.1893E+01
  0.1813E+01
  0.1734E+01
  0.1656E+01
  0.1582E+01
  0.1510E+01
  0.1441E+01
  0.1376E+01
  0.1313E+01
  0.1253E+01
  0.1196E+01
  0.1142E+01
  0.1090E+01
  0.1041E+01
  0.9932E+00
  0.9478E+00
  0.9044E+00
  0.8629E+00
  0.8231E+00
  0.7851E+00
  0.7489E+00
  0.7145E+00
  0.6819E+00
  0.6512E+00
  0.6223E+00
  0.5956E+00
  0.5718E+00
  0.5513E+00
  0.5391E+00
  0.5391E+00
  0.5462E+00
  0.5681E+00
  0.6121E+00
  0.6689E+00
  0.7292E+00
  0.7642E+00
  0.7626E+00
  0.7281E+00
  0.6545E+00
  0.5780E+00
  0.5244E+00
  0.5143E+00
  0.5233E+00
  0.5960E+00
  0.8272E+00
  0.1258E+01
  0.2149E+01
  0.2149E+01
  0.2149E+01
  0.2149E+01
  0.2149E+01
  0.2149E+01
  0.2149E+01
  0.2148E+01
  0.2144E+01
  0.2134E+01
  0.2111E+01
  0.2070E+01
  0.2011E+01
  0.1939E+01
  0.1861E+01
  0.1781E+01
  0.1702E+01
  0.1626E+01
  0.1551E+01
  0.1480E+01
  0.1411E+01
  0.1345E+01
  0.1282E+01
  0.1223E+01
  0.1166E+01
  0.1111E+01
  0.1059E+01
  0.1010E+01
  0.9620E+00
  0.9166E+00
  0.8731E+00
  0.8315E+00
  0.7917E+00
  0.7537E+00
  0.7176E+00
  0.6833E+00
  0.6509E+00
  0.6204E+00
  0.5918E+00
  0.5650E+00
  0.5412E+00
  0.5198E+00
  0.5103E+00
  0.5115E+00
  0.5222E+00
  0.5608E+00
  0.6194E+00
  0.6847E+00
  0.7423E+00
  0.7579E+00
  0.7488E+00
  0.6981E+00
  0.6212E+00
  0.5494E+00
  0.5114E+00
  0.5099E+00
  0.5208E+00
  0.5753E+00
  0.7710E+00
  0.1202E+01
  0.2097E+01
  0.2097E+01
  0.2097E+01
  0.2097E+01
  0.2097E+01
  0.2097E+01
  0.2097E+01
  0.2096E+01
  0.2093E+01
  0.2083E+01
  0.2062E+01
  0.2024E+01
  0.1967E+01
  0.1896E+01
  0.1819E+01
  0.1741E+01
  0.1663E+01
  0.1586E+01
  0.1512E+01
  0.1441E+01
  0.1373E+01
  0.1307E+01
  0.1245E+01
  0.1185E+01
  0.1128E+01
  0.1074E+01
  0.1022E+01
  0.9730E+00
  0.9257E+00
  0.8806E+00
  0.8375E+00
  0.7962E+00
  0.7568E+00
  0.7193E+00
  0.6837E+00
  0.6500E+00
  0.6182E+00
  0.5882E+00
  0.5601E+00
  0.5338E+00
  0.5101E+00
  0.4886E+00
  0.4839E+00
  0.4875E+00
  0.5141E+00
  0.5692E+00
  0.6384E+00
  0.7062E+00
  0.7473E+00
  0.7492E+00
  0.7268E+00
  0.6617E+00
  0.5844E+00
  0.5219E+00
  0.5037E+00
  0.5067E+00
  0.5216E+00
  0.5629E+00
  0.7068E+00
  0.1188E+01
  0.2035E+01
  0.2035E+01
  0.2035E+01
  0.2035E+01
  0.2035E+01
  0.2035E+01
  0.2034E+01
  0.2034E+01
  0.2031E+01
  0.2022E+01
  0.2003E+01
  0.1967E+01
  0.1912E+01
  0.1844E+01
  0.1769E+01
  0.1691E+01
  0.1614E+01
  0.1539E+01
  0.1466E+01
  0.1395E+01
  0.1328E+01
  0.1263E+01
  0.1201E+01
  0.1142E+01
  0.1086E+01
  0.1032E+01
  0.9812E+00
  0.9325E+00
  0.8859E+00
  0.8415E+00
  0.7992E+00
  0.7587E+00
  0.7202E+00
  0.6835E+00
  0.6488E+00
  0.6160E+00
  0.5851E+00
  0.5560E+00
  0.5285E+00
  0.5029E+00
  0.4786E+00
  0.4615E+00
  0.4611E+00
  0.4778E+00
  0.5236E+00
  0.5925E+00
  0.6655E+00
  0.7256E+00
  0.7437E+00
  0.7375E+00
  0.6951E+00
  0.6202E+00
  0.5461E+00
  0.5019E+00
  0.4985E+00
  0.5067E+00
  0.5257E+00
  0.5578E+00
  0.6519E+00
  0.1116E+01
  0.1962E+01
  0.1962E+01
  0.1962E+01
  0.1962E+01
  0.1962E+01
  0.1962E+01
  0.1962E+01
  0.1961E+01
  0.1959E+01
  0.1952E+01
  0.1934E+01
  0.1901E+01
  0.1849E+01
  0.1784E+01
  0.1711E+01
  0.1635E+01
  0.1559E+01
  0.1485E+01
  0.1414E+01
  0.1344E+01
  0.1278E+01
  0.1214E+01
  0.1153E+01
  0.1095E+01
  0.1040E+01
  0.9877E+00
  0.9376E+00
  0.8899E+00
  0.8445E+00
  0.8012E+00
  0.7600E+00
  0.7207E+00
  0.6833E+00
  0.6478E+00
  0.6142E+00
  0.5825E+00
  0.5527E+00
  0.5246E+00
  0.4978E+00
  0.4726E+00
  0.4480E+00
  0.4418E+00
  0.4509E+00
  0.4869E+00
  0.5505E+00
  0.6257E+00
  0.6932E+00
  0.7339E+00
  0.7365E+00
  0.7170E+00
  0.6533E+00
  0.5750E+00
  0.5116E+00
  0.4925E+00
  0.4958E+00
  0.5099E+00
  0.5325E+00
  0.5618E+00
  0.6035E+00
  0.9025E+00
  0.1883E+01
  0.1883E+01
  0.1883E+01
  0.1883E+01
  0.1883E+01
  0.1883E+01
  0.1883E+01
  0.1883E+01
  0.1880E+01
  0.1874E+01
  0.1859E+01
  0.1828E+01
  0.1780E+01
  0.1718E+01
  0.1647E+01
  0.1574E+01
  0.1500E+01
  0.1428E+01
  0.1358E+01
  0.1290E+01
  0.1225E+01
  0.1163E+01
  0.1103E+01
  0.1047E+01
  0.9932E+00
  0.9420E+00
  0.8934E+00
  0.8471E+00
  0.8031E+00
  0.7612E+00
  0.7213E+00
  0.6833E+00
  0.6473E+00
  0.6131E+00
  0.5807E+00
  0.5503E+00
  0.5216E+00
  0.4942E+00
  0.4683E+00
  0.4416E+00
  0.4274E+00
  0.4323E+00
  0.4596E+00
  0.5158E+00
  0.5897E+00
  0.6606E+00
  0.7166E+00
  0.7326E+00
  0.7255E+00
  0.6802E+00
  0.6030E+00
  0.5292E+00
  0.4898E+00
  0.4882E+00
  0.4972E+00
  0.5158E+00
  0.5410E+00
  0.5646E+00
  0.5638E+00
  0.7043E+00
  0.1801E+01
  0.1801E+01
  0.1801E+01
  0.1801E+01
  0.1801E+01
  0.1801E+01
  0.1801E+01
  0.1800E+01
  0.1799E+01
  0.1793E+01
  0.1780E+01
  0.1752E+01
  0.1708E+01
  0.1649E+01
  0.1581E+01
  0.1510E+01
  0.1439E+01
  0.1368E+01
  0.1300E+01
  0.1234E+01
  0.1171E+01
  0.1111E+01
  0.1053E+01
  0.9986E+00
  0.9465E+00
  0.8970E+00
  0.8500E+00
  0.8053E+00
  0.7628E+00
  0.7223E+00
  0.6839E+00
  0.6474E+00
  0.6127E+00
  0.5798E+00
  0.5488E+00
  0.5196E+00
  0.4917E+00
  0.4654E+00
  0.4382E+00
  0.4176E+00
  0.4199E+00
  0.4407E+00
  0.4888E+00
  0.5580E+00
  0.6297E+00
  0.6924E+00
  0.7245E+00
  0.7241E+00
  0.6962E+00
  0.6252E+00
  0.5470E+00
  0.4928E+00
  0.4824E+00
  0.4878E+00
  0.5030E+00
  0.5246E+00
  0.5474E+00
  0.5573E+00
  0.5143E+00
  0.5417E+00
  0.1719E+01
  0.1719E+01
  0.1719E+01
  0.1719E+01
  0.1719E+01
  0.1718E+01
  0.1718E+01
  0.1718E+01
  0.1717E+01
  0.1712E+01
  0.1700E+01
  0.1676E+01
  0.1635E+01
  0.1580E+01
  0.1515E+01
  0.1446E+01
  0.1377E+01
  0.1310E+01
  0.1244E+01
  0.1180E+01
  0.1119E+01
  0.1060E+01
  0.1005E+01
  0.9516E+00
  0.9013E+00
  0.8536E+00
  0.8082E+00
  0.7651E+00
  0.7241E+00
  0.6852E+00
  0.6483E+00
  0.6131E+00
  0.5798E+00
  0.5483E+00
  0.5186E+00
  0.4902E+00
  0.4634E+00
  0.4361E+00
  0.4127E+00
  0.4124E+00
  0.4281E+00
  0.4708E+00
  0.5340E+00
  0.6032E+00
  0.6688E+00
  0.7134E+00
  0.7188E+00
  0.7014E+00
  0.6375E+00
  0.5591E+00
  0.4977E+00
  0.4784E+00
  0.4812E+00
  0.4934E+00
  0.5120E+00
  0.5342E+00
  0.5474E+00
  0.5364E+00
  0.4517E+00
  0.4084E+00
  0.1638E+01
  0.1638E+01
  0.1638E+01
  0.1638E+01
  0.1638E+01
  0.1638E+01
  0.1638E+01
  0.1638E+01
  0.1636E+01
  0.1633E+01
  0.1622E+01
  0.1601E+01
  0.1564E+01
  0.1512E+01
  0.1450E+01
  0.1385E+01
  0.1318E+01
  0.1253E+01
  0.1189E+01
  0.1127E+01
  0.1068E+01
  0.1012E+01
  0.9578E+00
  0.9067E+00
  0.8582E+00
  0.8121E+00
  0.7684E+00
  0.7269E+00
  0.6875E+00
  0.6501E+00
  0.6145E+00
  0.5808E+00
  0.5487E+00
  0.5186E+00
  0.4897E+00
  0.4625E+00
  0.4347E+00
  0.4104E+00
  0.4086E+00
  0.4206E+00
  0.4580E+00
  0.5162E+00
  0.5841E+00
  0.6502E+00
  0.7006E+00
  0.7118E+00
  0.6984E+00
  0.6400E+00
  0.5629E+00
  0.5001E+00
  0.4750E+00
  0.4768E+00
  0.4865E+00
  0.5027E+00
  0.5225E+00
  0.5375E+00
  0.5358E+00
  0.4870E+00
  0.3802E+00
  0.3172E+00
  0.1561E+01
  0.1561E+01
  0.1561E+01
  0.1561E+01
  0.1561E+01
  0.1561E+01
  0.1561E+01
  0.1560E+01
  0.1560E+01
  0.1556E+01
  0.1548E+01
  0.1529E+01
  0.1495E+01
  0.1447E+01
  0.1389E+01
  0.1326E+01
  0.1262E+01
  0.1198E+01
  0.1137E+01
  0.1077E+01
  0.1020E+01
  0.9655E+00
  0.9136E+00
  0.8642E+00
  0.8174E+00
  0.7730E+00
  0.7308E+00
  0.6909E+00
  0.6529E+00
  0.6169E+00
  0.5827E+00
  0.5503E+00
  0.5196E+00
  0.4902E+00
  0.4624E+00
  0.4347E+00
  0.4096E+00
  0.4069E+00
  0.4168E+00
  0.4500E+00
  0.5015E+00
  0.5644E+00
  0.6306E+00
  0.6894E+00
  0.7055E+00
  0.6946E+00
  0.6389E+00
  0.5610E+00
  0.4984E+00
  0.4729E+00
  0.4737E+00
  0.4815E+00
  0.4962E+00
  0.5137E+00
  0.5292E+00
  0.5324E+00
  0.5032E+00
  0.4129E+00
  0.3177E+00
  0.2595E+00
  0.1488E+01
  0.1488E+01
  0.1488E+01
  0.1488E+01
  0.1488E+01
  0.1488E+01
  0.1488E+01
  0.1487E+01
  0.1487E+01
  0.1484E+01
  0.1477E+01
  0.1460E+01
  0.1430E+01
  0.1385E+01
  0.1330E+01
  0.1270E+01
  0.1208E+01
  0.1147E+01
  0.1087E+01
  0.1030E+01
  0.9748E+00
  0.9221E+00
  0.8719E+00
  0.8242E+00
  0.7790E+00
  0.7362E+00
  0.6955E+00
  0.6570E+00
  0.6204E+00
  0.5857E+00
  0.5528E+00
  0.5216E+00
  0.4917E+00
  0.4634E+00
  0.4347E+00
  0.4095E+00
  0.4064E+00
  0.4144E+00
  0.4465E+00
  0.4964E+00
  0.5536E+00
  0.6132E+00
  0.6692E+00
  0.6957E+00
  0.6896E+00
  0.6385E+00
  0.5588E+00
  0.4964E+00
  0.4721E+00
  0.4722E+00
  0.4786E+00
  0.4920E+00
  0.5074E+00
  0.5217E+00
  0.5277E+00
  0.5104E+00
  0.4370E+00
  0.3432E+00
  0.2685E+00
  0.2258E+00
  0.1419E+01
  0.1419E+01
  0.1419E+01
  0.1419E+01
  0.1419E+01
  0.1419E+01
  0.1419E+01
  0.1419E+01
  0.1418E+01
  0.1416E+01
  0.1410E+01
  0.1395E+01
  0.1368E+01
  0.1327E+01
  0.1275E+01
  0.1217E+01
  0.1158E+01
  0.1099E+01
  0.1041E+01
  0.9857E+00
  0.9323E+00
  0.8813E+00
  0.8328E+00
  0.7867E+00
  0.7430E+00
  0.7016E+00
  0.6624E+00
  0.6252E+00
  0.5899E+00
  0.5565E+00
  0.5246E+00
  0.4942E+00
  0.4654E+00
  0.4359E+00
  0.4103E+00
  0.4069E+00
  0.4143E+00
  0.4407E+00
  0.4877E+00
  0.5480E+00
  0.6096E+00
  0.6637E+00
  0.6872E+00
  0.6830E+00
  0.6379E+00
  0.5588E+00
  0.4970E+00
  0.4739E+00
  0.4730E+00
  0.4781E+00
  0.4898E+00
  0.5031E+00
  0.5160E+00
  0.5224E+00
  0.5120E+00
  0.4534E+00
  0.3644E+00
  0.2870E+00
  0.2340E+00
  0.2088E+00
  0.1354E+01
  0.1354E+01
  0.1354E+01
  0.1354E+01
  0.1354E+01
  0.1354E+01
  0.1354E+01
  0.1354E+01
  0.1354E+01
  0.1352E+01
  0.1347E+01
  0.1334E+01
  0.1310E+01
  0.1272E+01
  0.1223E+01
  0.1168E+01
  0.1111E+01
  0.1054E+01
  0.9983E+00
  0.9444E+00
  0.8927E+00
  0.8433E+00
  0.7963E+00
  0.7518E+00
  0.7095E+00
  0.6694E+00
  0.6315E+00
  0.5955E+00
  0.5614E+00
  0.5288E+00
  0.4978E+00
  0.4683E+00
  0.4381E+00
  0.4129E+00
  0.4085E+00
  0.4167E+00
  0.4464E+00
  0.4877E+00
  0.5363E+00
  0.5955E+00
  0.6609E+00
  0.6900E+00
  0.6844E+00
  0.6410E+00
  0.5626E+00
  0.5005E+00
  0.4782E+00
  0.4762E+00
  0.4806E+00
  0.4900E+00
  0.5006E+00
  0.5117E+00
  0.5179E+00
  0.5114E+00
  0.4634E+00
  0.3806E+00
  0.3031E+00
  0.2462E+00
  0.2136E+00
  0.2023E+00
  0.1295E+01
  0.1295E+01
  0.1295E+01
  0.1295E+01
  0.1295E+01
  0.1295E+01
  0.1295E+01
  0.1295E+01
  0.1294E+01
  0.1293E+01
  0.1289E+01
  0.1278E+01
  0.1256E+01
  0.1221E+01
  0.1175E+01
  0.1123E+01
  0.1068E+01
  0.1013E+01
  0.9588E+00
  0.9066E+00
  0.8565E+00
  0.8086E+00
  0.7630E+00
  0.7198E+00
  0.6787E+00
  0.6398E+00
  0.6030E+00
  0.5679E+00
  0.5347E+00
  0.5031E+00
  0.4725E+00
  0.4415E+00
  0.4179E+00
  0.4122E+00
  0.4207E+00
  0.4498E+00
  0.4964E+00
  0.5484E+00
  0.5958E+00
  0.6435E+00
  0.6833E+00
  0.6844E+00
  0.6487E+00
  0.5697E+00
  0.5064E+00
  0.4836E+00
  0.4813E+00
  0.4850E+00
  0.4921E+00
  0.5000E+00
  0.5088E+00
  0.5144E+00
  0.5097E+00
  0.4687E+00
  0.3920E+00
  0.3159E+00
  0.2571E+00
  0.2201E+00
  0.2042E+00
  0.2005E+00
  0.1242E+01
  0.1242E+01
  0.1242E+01
  0.1242E+01
  0.1242E+01
  0.1242E+01
  0.1242E+01
  0.1242E+01
  0.1242E+01
  0.1241E+01
  0.1237E+01
  0.1228E+01
  0.1209E+01
  0.1177E+01
  0.1134E+01
  0.1083E+01
  0.1030E+01
  0.9769E+00
  0.9246E+00
  0.8739E+00
  0.8251E+00
  0.7785E+00
  0.7341E+00
  0.6918E+00
  0.6518E+00
  0.6138E+00
  0.5777E+00
  0.5435E+00
  0.5107E+00
  0.4787E+00
  0.4478E+00
  0.4274E+00
  0.4194E+00
  0.4283E+00
  0.4578E+00
  0.5010E+00
  0.5537E+00
  0.6098E+00
  0.6622E+00
  0.6837E+00
  0.6811E+00
  0.6469E+00
  0.5731E+00
  0.5113E+00
  0.4886E+00
  0.4864E+00
  0.4895E+00
  0.4950E+00
  0.5008E+00
  0.5076E+00
  0.5123E+00
  0.5082E+00
  0.4707E+00
  0.3985E+00
  0.3251E+00
  0.2661E+00
  0.2264E+00
  0.2067E+00
  0.2009E+00
  0.2001E+00
  0.1200E+01
  0.1200E+01
  0.1200E+01
  0.1200E+01
  0.1200E+01
  0.1200E+01
  0.1200E+01
  0.1200E+01
  0.1200E+01
  0.1199E+01
  0.1196E+01
  0.1188E+01
  0.1171E+01
  0.1142E+01
  0.1101E+01
  0.1052E+01
  0.1001E+01
  0.9487E+00
  0.8977E+00
  0.8482E+00
  0.8005E+00
  0.7548E+00
  0.7112E+00
  0.6696E+00
  0.6300E+00
  0.5922E+00
  0.5562E+00
  0.5215E+00
  0.4890E+00
  0.4615E+00
  0.4420E+00
  0.4318E+00
  0.4406E+00
  0.4710E+00
  0.5160E+00
  0.5640E+00
  0.6128E+00
  0.6645E+00
  0.6905E+00
  0.6853E+00
  0.6470E+00
  0.5733E+00
  0.5125E+00
  0.4916E+00
  0.4905E+00
  0.4932E+00
  0.4971E+00
  0.5015E+00
  0.5073E+00
  0.5116E+00
  0.5079E+00
  0.4728E+00
  0.4024E+00
  0.3307E+00
  0.2727E+00
  0.2318E+00
  0.2094E+00
  0.2016E+00
  0.2002E+00
  0.2000E+00
  0.1173E+01
  0.1173E+01
  0.1173E+01
  0.1173E+01
  0.1173E+01
  0.1173E+01
  0.1173E+01
  0.1173E+01
  0.1173E+01
  0.1172E+01
  0.1169E+01
  0.1163E+01
  0.1148E+01
  0.1121E+01
  0.1083E+01
  0.1037E+01
  0.9863E+00
  0.9349E+00
  0.8839E+00
  0.8342E+00
  0.7860E+00
  0.7400E+00
  0.6960E+00
  0.6542E+00
  0.6146E+00
  0.5774E+00
  0.5427E+00
  0.5115E+00
  0.4843E+00
  0.4614E+00
  0.4505E+00
  0.4596E+00
  0.4890E+00
  0.5338E+00
  0.5840E+00
  0.6307E+00
  0.6683E+00
  0.6877E+00
  0.6849E+00
  0.6493E+00
  0.5733E+00
  0.5126E+00
  0.4927E+00
  0.4924E+00
  0.4950E+00
  0.4984E+00
  0.5018E+00
  0.5069E+00
  0.5111E+00
  0.5078E+00
  0.4748E+00
  0.4060E+00
  0.3348E+00
  0.2771E+00
  0.2361E+00
  0.2120E+00
  0.2025E+00
  0.2003E+00
  0.2000E+00
  0.2000E+00
  0.1168E+01
  0.1168E+01
  0.1168E+01
  0.1168E+01
  0.1168E+01
  0.1168E+01
  0.1168E+01
  0.1168E+01
  0.1168E+01
  0.1167E+01
  0.1165E+01
  0.1159E+01
  0.1145E+01
  0.1120E+01
  0.1083E+01
  0.1037E+01
  0.9867E+00
  0.9352E+00
  0.8840E+00
  0.8339E+00
  0.7853E+00
  0.7387E+00
  0.6942E+00
  0.6522E+00
  0.6127E+00
  0.5759E+00
  0.5422E+00
  0.5125E+00
  0.4879E+00
  0.4774E+00
  0.4867E+00
  0.5161E+00
  0.5575E+00
  0.6032E+00
  0.6498E+00
  0.6890E+00
  0.6954E+00
  0.6839E+00
  0.6413E+00
  0.5698E+00
  0.5109E+00
  0.4915E+00
  0.4923E+00
  0.4954E+00
  0.4987E+00
  0.5019E+00
  0.5067E+00
  0.5107E+00
  0.5075E+00
  0.4753E+00
  0.4073E+00
  0.3374E+00
  0.2801E+00
  0.2390E+00
  0.2141E+00
  0.2033E+00
  0.2005E+00
  0.2000E+00
  0.2000E+00
  0.2000E+00
  0.1169E+01
  0.1169E+01
  0.1169E+01
  0.1169E+01
  0.1169E+01
  0.1169E+01
  0.1169E+01
  0.1169E+01
  0.1169E+01
  0.1168E+01
  0.1166E+01
  0.1161E+01
  0.1149E+01
  0.1126E+01
  0.1090E+01
  0.1045E+01
  0.9946E+00
  0.9429E+00
  0.8911E+00
  0.8403E+00
  0.7909E+00
  0.7433E+00
  0.6980E+00
  0.6557E+00
  0.6165E+00
  0.5804E+00
  0.5486E+00
  0.5232E+00
  0.5138E+00
  0.5232E+00
  0.5507E+00
  0.5896E+00
  0.6297E+00
  0.6681E+00
  0.7012E+00
  0.7046E+00
  0.6900E+00
  0.6372E+00
  0.5629E+00
  0.5062E+00
  0.4885E+00
  0.4905E+00
  0.4948E+00
  0.4985E+00
  0.5017E+00
  0.5064E+00
  0.5104E+00
  0.5073E+00
  0.4758E+00
  0.4082E+00
  0.3384E+00
  0.2818E+00
  0.2410E+00
  0.2156E+00
  0.2040E+00
  0.2006E+00
  0.2001E+00
  0.2000E+00
  0.2000E+00
  0.2000E+00
  0.1178E+01
  0.1178E+01
  0.1178E+01
  0.1178E+01
  0.1178E+01
  0.1178E+01
  0.1178E+01
  0.1178E+01
  0.1178E+01
  0.1178E+01
  0.1176E+01
  0.1172E+01
  0.1161E+01
  0.1140E+01
  0.1105E+01
  0.1061E+01
  0.1010E+01
  0.9572E+00
  0.9040E+00
  0.8520E+00
  0.8018E+00
  0.7539E+00
  0.7088E+00
  0.6669E+00
  0.6287E+00
  0.5955E+00
  0.5701E+00
  0.5610E+00
  0.5690E+00
  0.5928E+00
  0.6255E+00
  0.6604E+00
  0.6933E+00
  0.7129E+00
  0.7111E+00
  0.6952E+00
  0.6382E+00
  0.5591E+00
  0.5005E+00
  0.4835E+00
  0.4866E+00
  0.4929E+00
  0.4981E+00
  0.5017E+00
  0.5063E+00
  0.5100E+00
  0.5069E+00
  0.4757E+00
  0.4085E+00
  0.3393E+00
  0.2828E+00
  0.2422E+00
  0.2167E+00
  0.2046E+00
  0.2008E+00
  0.2001E+00
  0.2000E+00
  0.2000E+00
  0.2000E+00
  0.2000E+00
  0.1195E+01
  0.1195E+01
  0.1195E+01
  0.1195E+01
  0.1195E+01
  0.1195E+01
  0.1195E+01
  0.1195E+01
  0.1195E+01
  0.1195E+01
  0.1194E+01
  0.1190E+01
  0.1180E+01
  0.1160E+01
  0.1126E+01
  0.1081E+01
  0.1030E+01
  0.9749E+00
  0.9203E+00
  0.8670E+00
  0.8160E+00
  0.7680E+00
  0.7236E+00
  0.6835E+00
  0.6491E+00
  0.6236E+00
  0.6133E+00
  0.6197E+00
  0.6388E+00
  0.6654E+00
  0.6928E+00
  0.7165E+00
  0.7255E+00
  0.7186E+00
  0.6988E+00
  0.6395E+00
  0.5595E+00
  0.4971E+00
  0.4782E+00
  0.4816E+00
  0.4894E+00
  0.4970E+00
  0.5018E+00
  0.5065E+00
  0.5101E+00
  0.5067E+00
  0.4752E+00
  0.4084E+00
  0.3393E+00
  0.2834E+00
  0.2429E+00
  0.2173E+00
  0.2050E+00
  0.2009E+00
  0.2001E+00
  0.2000E+00
  0.2000E+00
  0.2000E+00
  0.2000E+00
  0.2000E+00
  0.1211E+01
  0.1211E+01
  0.1211E+01
  0.1211E+01
  0.1211E+01
  0.1211E+01
  0.1211E+01
  0.1211E+01
  0.1211E+01
  0.1211E+01
  0.1210E+01
  0.1206E+01
  0.1197E+01
  0.1178E+01
  0.1145E+01
  0.1100E+01
  0.1047E+01
  0.9911E+00
  0.9350E+00
  0.8807E+00
  0.8298E+00
  0.7829E+00
  0.7409E+00
  0.7054E+00
  0.6793E+00
  0.6666E+00
  0.6705E+00
  0.6853E+00
  0.7059E+00
  0.7253E+00
  0.7344E+00
  0.7322E+00
  0.7246E+00
  0.7008E+00
  0.6403E+00
  0.5615E+00
  0.4970E+00
  0.4742E+00
  0.4766E+00
  0.4849E+00
  0.4947E+00
  0.5015E+00
  0.5070E+00
  0.5107E+00
  0.5071E+00
  0.4753E+00
  0.4082E+00
  0.3392E+00
  0.2834E+00
  0.2432E+00
  0.2177E+00
  0.2052E+00
  0.2010E+00
  0.2001E+00
  0.2000E+00
  0.2000E+00
  0.2000E+00
  0.2000E+00
  0.2000E+00
  0.2000E+00
  0.1221E+01
  0.1221E+01
  0.1221E+01
  0.1221E+01
  0.1221E+01
  0.1221E+01
  0.1221E+01
  0.1221E+01
  0.1221E+01
  0.1220E+01
  0.1219E+01
  0.1216E+01
  0.1208E+01
  0.1189E+01
  0.1157E+01
  0.1112E+01
  0.1058E+01
  0.1001E+01
  0.9448E+00
  0.8915E+00
  0.8428E+00
  0.7995E+00
  0.7631E+00
  0.7361E+00
  0.7207E+00
  0.7214E+00
  0.7306E+00
  0.7425E+00
  0.7474E+00
  0.7437E+00
  0.7371E+00
  0.7255E+00
  0.6958E+00
  0.6374E+00
  0.5631E+00
  0.4987E+00
  0.4724E+00
  0.4732E+00
  0.4806E+00
  0.4919E+00
  0.5006E+00
  0.5072E+00
  0.5113E+00
  0.5076E+00
  0.4756E+00
  0.4083E+00
  0.3392E+00
  0.2834E+00
  0.2433E+00
  0.2179E+00
  0.2054E+00
  0.2011E+00
  0.2001E+00
  0.2000E+00
  0.2000E+00
  0.2000E+00
  0.2000E+00
  0.2000E+00
  0.2000E+00
  0.2000E+00
  0.1223E+01
  0.1223E+01
  0.1223E+01
  0.1223E+01
  0.1223E+01
  0.1223E+01
  0.1223E+01
  0.1223E+01
  0.1222E+01
  0.1222E+01
  0.1221E+01
  0.1218E+01
  0.1209E+01
  0.1190E+01
  0.1158E+01
  0.1113E+01
  0.1060E+01
  0.1005E+01
  0.9515E+00
  0.9024E+00
  0.8584E+00
  0.8218E+00
  0.7943E+00
  0.7762E+00
  0.7689E+00
  0.7684E+00
  0.7656E+00
  0.7577E+00
  0.7496E+00
  0.7376E+00
  0.7168E+00
  0.6800E+00
  0.6250E+00
  0.5589E+00
  0.4999E+00
  0.4731E+00
  0.4723E+00
  0.4781E+00
  0.4900E+00
  0.4999E+00
  0.5074E+00
  0.5116E+00
  0.5079E+00
  0.4755E+00
  0.4081E+00
  0.3392E+00
  0.2833E+00
  0.2432E+00
  0.2179E+00
  0.2054E+00
  0.2011E+00
  0.2002E+00
  0.2000E+00
  0.2000E+00
  0.2000E+00
  0.2000E+00
  0.2000E+00
  0.2000E+00
  0.2000E+00
  0.2000E+00
  0.1220E+01
  0.1220E+01
  0.1220E+01
  0.1220E+01
  0.1220E+01
  0.1220E+01
  0.1220E+01
  0.1220E+01
  0.1220E+01
  0.1220E+01
  0.1219E+01
  0.1215E+01
  0.1206E+01
  0.1187E+01
  0.1155E+01
  0.1110E+01
  0.1058E+01
  0.1004E+01
  0.9538E+00
  0.9091E+00
  0.8712E+00
  0.8407E+00
  0.8174E+00
  0.8000E+00
  0.7862E+00
  0.7752E+00
  0.7640E+00
  0.7492E+00
  0.7270E+00
  0.6951E+00
  0.6533E+00
  0.6028E+00
  0.5467E+00
  0.4974E+00
  0.4751E+00
  0.4735E+00
  0.4788E+00
  0.4900E+00
  0.5006E+00
  0.5087E+00
  0.5126E+00
  0.5080E+00
  0.4750E+00
  0.4076E+00
  0.3385E+00
  0.2829E+00
  0.2429E+00
  0.2178E+00
  0.2054E+00
  0.2011E+00
  0.2002E+00
  0.2000E+00
  0.2000E+00
  0.2000E+00
  0.2000E+00
  0.2000E+00
  0.2000E+00
  0.2000E+00
  0.2000E+00
  0.2000E+00
  0.1196E+01
  0.1196E+01
  0.1196E+01
  0.1196E+01
  0.1196E+01
  0.1196E+01
  0.1196E+01
  0.1196E+01
  0.1196E+01
  0.1196E+01
  0.1194E+01
  0.1189E+01
  0.1179E+01
  0.1159E+01
  0.1127E+01
  0.1085E+01
  0.1038E+01
  0.9911E+00
  0.9459E+00
  0.9048E+00
  0.8694E+00
  0.8396E+00
  0.8152E+00
  0.7948E+00
  0.7766E+00
  0.7561E+00
  0.7306E+00
  0.6992E+00
  0.6622E+00
  0.6202E+00
  0.5749E+00
  0.5291E+00
  0.4925E+00
  0.4782E+00
  0.4764E+00
  0.4816E+00
  0.4923E+00
  0.5033E+00
  0.5117E+00
  0.5149E+00
  0.5086E+00
  0.4732E+00
  0.4061E+00
  0.3374E+00
  0.2819E+00
  0.2422E+00
  0.2173E+00
  0.2052E+00
  0.2011E+00
  0.2002E+00
  0.2000E+00
  0.2000E+00
  0.2000E+00
  0.2000E+00
  0.2000E+00
  0.2000E+00
  0.2000E+00
  0.2000E+00
  0.2000E+00
  0.2000E+00
  0.1112E+01
  0.1112E+01
  0.1112E+01
  0.1112E+01
  0.1112E+01
  0.1112E+01
  0.1112E+01
  0.1111E+01
  0.1111E+01
  0.1110E+01
  0.1108E+01
  0.1103E+01
  0.1091E+01
  0.1072E+01
  0.1043E+01
  0.1008E+01
  0.9695E+00
  0.9313E+00
  0.8966E+00
  0.8650E+00
  0.8349E+00
  0.8058E+00
  0.7773E+00
  0.7494E+00
  0.7209E+00
  0.6906E+00
  0.6580E+00
  0.6226E+00
  0.5849E+00
  0.5464E+00
  0.5116E+00
  0.4899E+00
  0.4827E+00
  0.4812E+00
  0.4862E+00
  0.4963E+00
  0.5074E+00
  0.5161E+00
  0.5182E+00
  0.5103E+00
  0.4711E+00
  0.4027E+00
  0.3348E+00
  0.2801E+00
  0.2410E+00
  0.2167E+00
  0.2050E+00
  0.2010E+00
  0.2001E+00
  0.2000E+00
  0.2000E+00
  0.2000E+00
  0.2000E+00
  0.2000E+00
  0.2000E+00
  0.2000E+00
  0.2000E+00
  0.2000E+00
  0.2000E+00
  0.2000E+00
  0.9870E+00
  0.9870E+00
  0.9870E+00
  0.9870E+00
  0.9870E+00
  0.9870E+00
  0.9869E+00
  0.9868E+00
  0.9865E+00
  0.9854E+00
  0.9825E+00
  0.9762E+00
  0.9647E+00
  0.9469E+00
  0.9234E+00
  0.8959E+00
  0.8671E+00
  0.8382E+00
  0.8097E+00
  0.7822E+00
  0.7558E+00
  0.7286E+00
  0.7005E+00
  0.6719E+00
  0.6431E+00
  0.6133E+00
  0.5823E+00
  0.5513E+00
  0.5226E+00
  0.5021E+00
  0.4926E+00
  0.4880E+00
  0.4881E+00
  0.4932E+00
  0.5027E+00
  0.5137E+00
  0.5216E+00
  0.5219E+00
  0.5120E+00
  0.4689E+00
  0.3988E+00
  0.3309E+00
  0.2771E+00
  0.2390E+00
  0.2156E+00
  0.2046E+00
  0.2009E+00
  0.2001E+00
  0.2000E+00
  0.2000E+00
  0.2000E+00
  0.2000E+00
  0.2000E+00
  0.2000E+00
  0.2000E+00
  0.2000E+00
  0.2000E+00
  0.2000E+00
  0.2000E+00
  0.2000E+00
  0.8621E+00
  0.8621E+00
  0.8621E+00
  0.8621E+00