# vtk DataFile Version 3.0
vtk output
ASCII
DATASET RECTILINEAR_GRID
DIMENSIONS          61          61 1
X_COORDINATES    61 double
  0.0000E+00
  0.1667E+00
  0.3333E+00
  0.5000E+00
  0.6667E+00
  0.8333E+00
  0.1000E+01
  0.1167E+01
  0.1333E+01
  0.1500E+01
  0.1667E+01
  0.1833E+01
  0.2000E+01
  0.2167E+01
  0.2333E+01
  0.2500E+01
  0.2667E+01
  0.2833E+01
  0.3000E+01
  0.3167E+01
  0.3333E+01
  0.3500E+01
  0.3667E+01
  0.3833E+01
  0.4000E+01
  0.4167E+01
  0.4333E+01
  0.4500E+01
  0.4667E+01
  0.4833E+01
  0.5000E+01
  0.5167E+01
  0.5333E+01
  0.5500E+01
  0.5667E+01
  0.5833E+01
  0.6000E+01
  0.6167E+01
  0.6333E+01
  0.6500E+01
  0.6667E+01
  0.6833E+01
  0.7000E+01
  0.7167E+01
  0.7333E+01
  0.7500E+01
  0.7667E+01
  0.7833E+01
  0.8000E+01
  0.8167E+01
  0.8333E+01
  0.8500E+01
  0.8667E+01
  0.8833E+01
  0.9000E+01
  0.9167E+01
  0.9333E+01
  0.9500E+01
  0.9667E+01
  0.9833E+01
  0.1000E+02
Y_COORDINATES    61 double
  0.0000E+00
  0.1667E+00
  0.3333E+00
  0.5000E+00
  0.6667E+00
  0.8333E+00
  0.1000E+01
  0.1167E+01
  0.1333E+01
  0.1500E+01
  0.1667E+01
  0.1833E+01
  0.2000E+01
  0.2167E+01
  0.2333E+01
  0.2500E+01
  0.2667E+01
  0.2833E+01
  0.3000E+01
  0.3167E+01
  0.3333E+01
  0.3500E+01
  0.3667E+01
  0.3833E+01
  0.4000E+01
  0.4167E+01
  0.4333E+01
  0.4500E+01
  0.4667E+01
  0.4833E+01
  0.5000E+01
  0.5167E+01
  0.5333E+01
  0.5500E+01
  0.5667E+01
  0.5833E+01
  0.6000E+01
  0.6167E+01
  0.6333E+01
  0.6500E+01
  0.6667E+01
  0.6833E+01
  0.7000E+01
  0.7167E+01
  0.7333E+01
  0.7500E+01
  0.7667E+01
  0.7833E+01
  0.8000E+01
  0.8167E+01
  0.8333E+01
  0.8500E+01
  0.8667E+01
  0.8833E+01
  0.9000E+01
  0.9167E+01
  0.9333E+01
  0.9500E+01
  0.9667E+01
  0.9833E+01
  0.1000E+02
Z_COORDINATES 1 double
0
CELL_DATA                 3600
FIELD FieldData 4
density 1                 3600 double
  0.4995E+01
  0.4995E+01
  0.4995E+01
  0.4995E+01
  0.4995E+01
  0.4995E+01
  0.4995E+01
  0.4995E+01
  0.4995E+01
  0.4995E+01
  0.4995E+01
  0.4995E+01
  0.4995E+01
  0.4995E+01
  0.4995E+01
  0.4995E+01
  0.4995E+01
  0.4995E+01
  0.4991E+01
  0.4974E+01
  0.4909E+01
  0.4749E+01
  0.4470E+01
  0.4110E+01
  0.3725E+01
  0.3353E+01
  0.3011E+01
  0.2706E+01
  0.2434E+01
  0.2187E+01
  0.1962E+01
  0.1764E+01
  0.1596E+01
  0.1463E+01
  0.1356E+01
  0.1261E+01
  0.1198E+01
  0.1156E+01
  0.1086E+01
  0.9600E+00
  0.8210E+00
  0.7407E+00
  0.7166E+00
  0.6658E+00
  0.4843E+00
  0.2993E+00
  0.2155E+00
  0.2003E+00
  0.2000E+00
  0.2000E+00
  0.2000E+00
  0.2000E+00
  0.2000E+00
  0.2000E+00
  0.2000E+00
  0.2000E+00
  0.2000E+00
  0.2000E+00
  0.2000E+00
  0.2000E+00
  0.4978E+01
  0.4978E+01
  0.4978E+01
  0.4978E+01
  0.4978E+01
  0.4978E+01
  0.4978E+01
  0.4978E+01
  0.4978E+01
  0.4978E+01
  0.4978E+01
  0.4978E+01
  0.4978E+01
  0.4978E+01
  0.4978E+01
  0.4978E+01
  0.4978E+01
  0.4977E+01
  0.4974E+01
  0.4956E+01
  0.4893E+01
  0.4734E+01
  0.4456E+01
  0.4098E+01
  0.3715E+01
  0.3344E+01
  0.3005E+01
  0.2701E+01
  0.2430E+01
  0.2184E+01
  0.1960E+01
  0.1763E+01
  0.1595E+01
  0.1462E+01
  0.1356E+01
  0.1261E+01
  0.1197E+01
  0.1155E+01
  0.1086E+01
  0.9595E+00
  0.8204E+00
  0.7400E+00
  0.7158E+00
  0.6649E+00
  0.4836E+00
  0.2990E+00
  0.2155E+00
  0.2003E+00
  0.2000E+00
  0.2000E+00
  0.2000E+00
  0.2000E+00
  0.2000E+00
  0.2000E+00
  0.2000E+00
  0.2000E+00
  0.2000E+00
  0.2000E+00
  0.2000E+00
  0.2000E+00
  0.4914E+01
  0.4914E+01
  0.4914E+01
  0.4914E+01
  0.4914E+01
  0.4914E+01
  0.4914E+01
  0.4914E+01
  0.4914E+01
  0.4914E+01
  0.4914E+01
  0.4914E+01
  0.4914E+01
  0.4914E+01
  0.4914E+01
  0.4914E+01
  0.4914E+01
  0.4913E+01
  0.4910E+01
  0.4893E+01
  0.4831E+01
  0.4676E+01
  0.4403E+01
  0.4052E+01
  0.3676E+01
  0.3311E+01
  0.2978E+01
  0.2679E+01
  0.2413E+01
  0.2170E+01
  0.1949E+01
  0.1755E+01
  0.1589E+01
  0.1458E+01
  0.1352E+01
  0.1258E+01
  0.1195E+01
  0.1153E+01
  0.1084E+01
  0.9570E+00
  0.8174E+00
  0.7366E+00
  0.7123E+00
  0.6612E+00
  0.4811E+00
  0.2981E+00
  0.2153E+00
  0.2003E+00
  0.2000E+00
  0.2000E+00
  0.2000E+00
  0.2000E+00
  0.2000E+00
  0.2000E+00
  0.2000E+00
  0.2000E+00
  0.2000E+00
  0.2000E+00
  0.2000E+00
  0.2000E+00
  0.4754E+01
  0.4754E+01
  0.4754E+01
  0.4754E+01
  0.4754E+01
  0.4754E+01
  0.4754E+01
  0.4754E+01
  0.4754E+01
  0.4754E+01
  0.4754E+01
  0.4754E+01
  0.4754E+01
  0.4754E+01
  0.4754E+01
  0.4754E+01
  0.4753E+01
  0.4753E+01
  0.4750E+01
  0.4734E+01
  0.4676E+01
  0.4528E+01
  0.4268E+01
  0.3931E+01
  0.3570E+01
  0.3220E+01
  0.2900E+01
  0.2614E+01
  0.2359E+01
  0.2126E+01
  0.1914E+01
  0.1726E+01
  0.1567E+01
  0.1440E+01
  0.1338E+01
  0.1247E+01
  0.1185E+01
  0.1144E+01
  0.1074E+01
  0.9469E+00
  0.8070E+00
  0.7263E+00
  0.7022E+00
  0.6516E+00
  0.4746E+00
  0.2959E+00
  0.2148E+00
  0.2003E+00
  0.2000E+00
  0.2000E+00
  0.2000E+00
  0.2000E+00
  0.2000E+00
  0.2000E+00
  0.2000E+00
  0.2000E+00
  0.2000E+00
  0.2000E+00
  0.2000E+00
  0.2000E+00
  0.4474E+01
  0.4474E+01
  0.4474E+01
  0.4474E+01
  0.4474E+01
  0.4474E+01
  0.4474E+01
  0.4474E+01
  0.4474E+01
  0.4474E+01
  0.4474E+01
  0.4474E+01
  0.4474E+01
  0.4474E+01
  0.4474E+01
  0.4474E+01
  0.4474E+01
  0.4473E+01
  0.4471E+01
  0.4456E+01
  0.4403E+01
  0.4268E+01
  0.4026E+01
  0.3711E+01
  0.3374E+01
  0.3047E+01
  0.2748E+01
  0.2481E+01
  0.2243E+01
  0.2027E+01
  0.1830E+01
  0.1656E+01
  0.1508E+01
  0.1391E+01
  0.1297E+01
  0.1213E+01
  0.1155E+01
  0.1115E+01
  0.1046E+01
  0.9201E+00
  0.7828E+00
  0.7052E+00
  0.6833E+00
  0.6350E+00
  0.4634E+00
  0.2917E+00
  0.2137E+00
  0.2002E+00
  0.2000E+00
  0.2000E+00
  0.2000E+00
  0.2000E+00
  0.2000E+00
  0.2000E+00
  0.2000E+00
  0.2000E+00
  0.2000E+00
  0.2000E+00
  0.2000E+00
  0.2000E+00
  0.4113E+01
  0.4113E+01
  0.4113E+01
  0.4113E+01
  0.4113E+01
  0.4113E+01
  0.4113E+01
  0.4113E+01
  0.4113E+01
  0.4113E+01
  0.4113E+01
  0.4113E+01
  0.4113E+01
  0.4113E+01
  0.4113E+01
  0.4113E+01
  0.4113E+01
  0.4113E+01
  0.4110E+01
  0.4098E+01
  0.4052E+01
  0.3930E+01
  0.3711E+01
  0.3421E+01
  0.3110E+01
  0.2808E+01
  0.2532E+01
  0.2288E+01
  0.2070E+01
  0.1872E+01
  0.1693E+01
  0.1536E+01
  0.1403E+01
  0.1298E+01
  0.1215E+01
  0.1140E+01
  0.1088E+01
  0.1053E+01
  0.9879E+00
  0.8703E+00
  0.7437E+00
  0.6761E+00
  0.6590E+00
  0.6138E+00
  0.4472E+00
  0.2849E+00
  0.2121E+00
  0.2002E+00
  0.2000E+00
  0.2000E+00
  0.2000E+00
  0.2000E+00
  0.2000E+00
  0.2000E+00
  0.2000E+00
  0.2000E+00
  0.2000E+00
  0.2000E+00
  0.2000E+00
  0.2000E+00
  0.3728E+01
  0.3728E+01
  0.3728E+01
  0.3728E+01
  0.3728E+01
  0.3728E+01
  0.3728E+01
  0.3728E+01
  0.3728E+01
  0.3728E+01
  0.3728E+01
  0.3728E+01
  0.3728E+01
  0.3728E+01
  0.3728E+01
  0.3728E+01
  0.3728E+01
  0.3728E+01
  0.3726E+01
  0.3715E+01
  0.3676E+01
  0.3570E+01
  0.3373E+01
  0.3110E+01
  0.2824E+01
  0.2546E+01
  0.2293E+01
  0.2068E+01
  0.1869E+01
  0.1690E+01
  0.1527E+01
  0.1385E+01
  0.1266E+01
  0.1173E+01
  0.1099E+01
  0.1032E+01
  0.9872E+00
  0.9587E+00
  0.9045E+00
  0.8047E+00
  0.6982E+00
  0.6458E+00
  0.6340E+00
  0.5890E+00
  0.4254E+00
  0.2752E+00
  0.2097E+00
  0.2001E+00
  0.2000E+00
  0.2000E+00
  0.2000E+00
  0.2000E+00
  0.2000E+00
  0.2000E+00
  0.2000E+00
  0.2000E+00
  0.2000E+00
  0.2000E+00
  0.2000E+00
  0.2000E+00
  0.3354E+01
  0.3354E+01
  0.3354E+01
  0.3354E+01
  0.3354E+01
  0.3354E+01
  0.3354E+01
  0.3354E+01
  0.3354E+01
  0.3354E+01
  0.3354E+01
  0.3354E+01
  0.3354E+01
  0.3354E+01
  0.3354E+01
  0.3354E+01
  0.3354E+01
  0.3354E+01
  0.3353E+01
  0.3344E+01
  0.3311E+01
  0.3220E+01
  0.3046E+01
  0.2808E+01
  0.2546E+01
  0.2290E+01
  0.2057E+01
  0.1851E+01
  0.1669E+01
  0.1505E+01
  0.1357E+01
  0.1229E+01
  0.1121E+01
  0.1038E+01
  0.9707E+00
  0.9091E+00
  0.8722E+00
  0.8532E+00
  0.8156E+00
  0.7379E+00
  0.6531E+00
  0.6184E+00
  0.6105E+00
  0.5594E+00
  0.3976E+00
  0.2628E+00
  0.2071E+00
  0.2001E+00
  0.2000E+00
  0.2000E+00
  0.2000E+00
  0.2000E+00
  0.2000E+00
  0.2000E+00
  0.2000E+00
  0.2000E+00
  0.2000E+00
  0.2000E+00
  0.2000E+00
  0.2000E+00
  0.3013E+01
  0.3013E+01
  0.3013E+01
  0.3013E+01
  0.3013E+01
  0.3013E+01
  0.3013E+01
  0.3013E+01
  0.3013E+01
  0.3013E+01
  0.3013E+01
  0.3013E+01
  0.3013E+01
  0.3013E+01
  0.3013E+01
  0.3013E+01
  0.3013E+01
  0.3012E+01
  0.3011E+01
  0.3005E+01
  0.2978E+01
  0.2900E+01
  0.2747E+01
  0.2532E+01
  0.2293E+01
  0.2057E+01
  0.1842E+01
  0.1653E+01
  0.1485E+01
  0.1334E+01
  0.1199E+01
  0.1082E+01
  0.9839E+00
  0.9078E+00
  0.8453E+00
  0.7901E+00
  0.7618E+00
  0.7545E+00
  0.7388E+00
  0.6816E+00
  0.6150E+00
  0.5947E+00
  0.5881E+00
  0.5236E+00
  0.3653E+00
  0.2486E+00
  0.2045E+00
  0.2000E+00
  0.2000E+00
  0.2000E+00
  0.2000E+00
  0.2000E+00
  0.2000E+00
  0.2000E+00
  0.2000E+00
  0.2000E+00
  0.2000E+00
  0.2000E+00
  0.2000E+00
  0.2000E+00
  0.2707E+01
  0.2707E+01
  0.2707E+01
  0.2707E+01
  0.2707E+01
  0.2707E+01
  0.2707E+01
  0.2707E+01
  0.2707E+01
  0.2707E+01
  0.2707E+01
  0.2707E+01
  0.2707E+01
  0.2707E+01
  0.2707E+01
  0.2707E+01
  0.2707E+01
  0.2707E+01
  0.2706E+01
  0.2701E+01
  0.2679E+01
  0.2614E+01
  0.2481E+01
  0.2287E+01
  0.2068E+01
  0.1851E+01
  0.1652E+01
  0.1477E+01
  0.1323E+01
  0.1184E+01
  0.1060E+01
  0.9532E+00
  0.8638E+00
  0.7940E+00
  0.7355E+00
  0.6836E+00
  0.6746E+00
  0.6828E+00
  0.6828E+00
  0.6387E+00
  0.5815E+00
  0.5724E+00
  0.5635E+00
  0.4793E+00
  0.3308E+00
  0.2339E+00
  0.2025E+00
  0.2000E+00
  0.2000E+00
  0.2000E+00
  0.2000E+00
  0.2000E+00
  0.2000E+00
  0.2000E+00
  0.2000E+00
  0.2000E+00
  0.2000E+00
  0.2000E+00
  0.2000E+00
  0.2000E+00
  0.2435E+01
  0.2435E+01
  0.2435E+01
  0.2435E+01
  0.2435E+01
  0.2435E+01
  0.2435E+01
  0.2435E+01
  0.2435E+01
  0.2435E+01
  0.2435E+01
  0.2435E+01
  0.2435E+01
  0.2435E+01
  0.2435E+01
  0.2435E+01
  0.2435E+01
  0.2435E+01
  0.2434E+01
  0.2430E+01
  0.2412E+01
  0.2358E+01
  0.2243E+01
  0.2070E+01
  0.1869E+01
  0.1669E+01
  0.1485E+01
  0.1323E+01
  0.1180E+01
  0.1052E+01
  0.9384E+00
  0.8402E+00
  0.7581E+00
  0.6944E+00
  0.6364E+00
  0.6045E+00
  0.6086E+00
  0.6427E+00
  0.6446E+00
  0.5943E+00
  0.5539E+00
  0.5530E+00
  0.5343E+00
  0.4269E+00
  0.2963E+00
  0.2208E+00
  0.2011E+00
  0.2000E+00
  0.2000E+00
  0.2000E+00
  0.2000E+00
  0.2000E+00
  0.2000E+00
  0.2000E+00
  0.2000E+00
  0.2000E+00
  0.2000E+00
  0.2000E+00
  0.2000E+00
  0.2000E+00
  0.2187E+01
  0.2187E+01
  0.2187E+01
  0.2187E+01
  0.2187E+01
  0.2187E+01
  0.2187E+01
  0.2187E+01
  0.2187E+01
  0.2187E+01
  0.2187E+01
  0.2187E+01
  0.2187E+01
  0.2187E+01
  0.2187E+01
  0.2187E+01
  0.2187E+01
  0.2187E+01
  0.2187E+01
  0.2184E+01
  0.2170E+01
  0.2126E+01
  0.2027E+01
  0.1872E+01
  0.1689E+01
  0.1504E+01
  0.1334E+01
  0.1184E+01
  0.1052E+01
  0.9340E+00
  0.8297E+00
  0.7395E+00
  0.6653E+00
  0.6056E+00
  0.5558E+00
  0.5499E+00
  0.5869E+00
  0.6281E+00
  0.6074E+00
  0.5471E+00
  0.5329E+00
  0.5327E+00
  0.4926E+00
  0.3718E+00
  0.2644E+00
  0.2108E+00
  0.2004E+00
  0.2000E+00
  0.2000E+00
  0.2000E+00
  0.2000E+00
  0.2000E+00
  0.2000E+00
  0.2000E+00
  0.2000E+00
  0.2000E+00
  0.2000E+00
  0.2000E+00
  0.2000E+00
  0.2000E+00
  0.1963E+01
  0.1963E+01
  0.1963E+01
  0.1963E+01
  0.1963E+01
  0.1963E+01
  0.1963E+01
  0.1963E+01
  0.1963E+01
  0.1963E+01
  0.1963E+01
  0.1963E+01
  0.1963E+01
  0.1963E+01
  0.1963E+01
  0.1963E+01
  0.1963E+01
  0.1962E+01
  0.1962E+01
  0.1960E+01
  0.1949E+01
  0.1913E+01
  0.1829E+01
  0.1693E+01
  0.1527E+01
  0.1357E+01
  0.1199E+01
  0.1060E+01
  0.9384E+00
  0.8296E+00
  0.7338E+00
  0.6516E+00
  0.5853E+00
  0.5255E+00
  0.5153E+00
  0.5428E+00
  0.6044E+00
  0.6064E+00
  0.5526E+00
  0.5152E+00
  0.5172E+00
  0.5082E+00
  0.4345E+00
  0.3199E+00
  0.2377E+00
  0.2047E+00
  0.2001E+00
  0.2000E+00
  0.2000E+00
  0.2000E+00
  0.2000E+00
  0.2000E+00
  0.2000E+00
  0.2000E+00
  0.2000E+00
  0.2000E+00
  0.2000E+00
  0.2000E+00
  0.2000E+00
  0.2000E+00
  0.1765E+01
  0.1765E+01
  0.1765E+01
  0.1765E+01
  0.1765E+01
  0.1765E+01
  0.1765E+01
  0.1765E+01
  0.1765E+01
  0.1765E+01
  0.1765E+01
  0.1765E+01
  0.1765E+01
  0.1765E+01
  0.1765E+01
  0.1765E+01
  0.1765E+01
  0.1764E+01
  0.1764E+01
  0.1763E+01
  0.1755E+01
  0.1726E+01
  0.1655E+01
  0.1535E+01
  0.1385E+01
  0.1228E+01
  0.1081E+01
  0.9530E+00
  0.8401E+00
  0.7394E+00
  0.6516E+00
  0.5780E+00
  0.5114E+00
  0.5004E+00
  0.5162E+00
  0.5765E+00
  0.6007E+00
  0.5649E+00
  0.5078E+00
  0.5021E+00
  0.5018E+00
  0.4659E+00
  0.3690E+00
  0.2753E+00
  0.2186E+00
  0.2016E+00
  0.2000E+00
  0.2000E+00
  0.2000E+00
  0.2000E+00
  0.2000E+00
  0.2000E+00
  0.2000E+00
  0.2000E+00
  0.2000E+00
  0.2000E+00
  0.2000E+00
  0.2000E+00
  0.2000E+00
  0.2000E+00
  0.1597E+01
  0.1597E+01
  0.1597E+01
  0.1597E+01
  0.1597E+01
  0.1597E+01
  0.1597E+01
  0.1597E+01
  0.1597E+01
  0.1597E+01
  0.1597E+01
  0.1597E+01
  0.1597E+01
  0.1597E+01
  0.1597E+01
  0.1597E+01
  0.1597E+01
  0.1597E+01
  0.1596E+01
  0.1595E+01
  0.1589E+01
  0.1567E+01
  0.1508E+01
  0.1402E+01
  0.1266E+01
  0.1121E+01
  0.9837E+00
  0.8637E+00
  0.7579E+00
  0.6652E+00
  0.5853E+00
  0.5119E+00
  0.4967E+00
  0.5060E+00
  0.5553E+00
  0.5911E+00
  0.5773E+00
  0.5211E+00
  0.4961E+00
  0.4939E+00
  0.4735E+00
  0.4010E+00
  0.3106E+00
  0.2411E+00
  0.2074E+00
  0.2004E+00
  0.2000E+00
  0.2000E+00
  0.2000E+00
  0.2000E+00
  0.2000E+00
  0.2000E+00
  0.2000E+00
  0.2000E+00
  0.2000E+00
  0.2000E+00
  0.2000E+00
  0.2000E+00
  0.2000E+00
  0.2000E+00
  0.1463E+01
  0.1463E+01
  0.1463E+01
  0.1463E+01
  0.1463E+01
  0.1463E+01
  0.1463E+01
  0.1463E+01
  0.1463E+01
  0.1463E+01
  0.1463E+01
  0.1463E+01
  0.1463E+01
  0.1463E+01
  0.1463E+01
  0.1463E+01
  0.1463E+01
  0.1463E+01
  0.1463E+01
  0.1462E+01
  0.1458E+01
  0.1440E+01
  0.1391E+01
  0.1298E+01
  0.1173E+01
  0.1038E+01
  0.9076E+00
  0.7938E+00
  0.6942E+00
  0.6055E+00
  0.5258E+00
  0.4994E+00
  0.5061E+00
  0.5396E+00
  0.5867E+00
  0.5861E+00
  0.5408E+00
  0.4996E+00
  0.4914E+00
  0.4740E+00
  0.4176E+00
  0.3367E+00
  0.2642E+00
  0.2185E+00
  0.2023E+00
  0.2001E+00
  0.2000E+00
  0.2000E+00
  0.2000E+00
  0.2000E+00
  0.2000E+00
  0.2000E+00
  0.2000E+00
  0.2000E+00
  0.2000E+00
  0.2000E+00
  0.2000E+00
  0.2000E+00
  0.2000E+00
  0.2000E+00
  0.1356E+01
  0.1356E+01
  0.1356E+01
  0.1356E+01
  0.1356E+01
  0.1356E+01
  0.1356E+01
  0.1356E+01
  0.1356E+01
  0.1356E+01
  0.1356E+01
  0.1356E+01
  0.1356E+01
  0.1356E+01
  0.1356E+01
  0.1356E+01
  0.1356E+01
  0.1356E+01
  0.1356E+01
  0.1356E+01
  0.1352E+01
  0.1338E+01
  0.1297E+01
  0.1215E+01
  0.1099E+01
  0.9704E+00
  0.8451E+00
  0.7353E+00
  0.6363E+00
  0.5559E+00
  0.5133E+00
  0.5186E+00
  0.5551E+00
  0.5855E+00
  0.5866E+00
  0.5541E+00
  0.5077E+00
  0.4888E+00
  0.4721E+00
  0.4239E+00
  0.3524E+00
  0.2826E+00
  0.2315E+00
  0.2065E+00
  0.2005E+00
  0.2000E+00
  0.2000E+00
  0.2000E+00
  0.2000E+00
  0.2000E+00
  0.2000E+00
  0.2000E+00
  0.2000E+00
  0.2000E+00
  0.2000E+00
  0.2000E+00
  0.2000E+00
  0.2000E+00
  0.2000E+00
  0.2000E+00
  0.1261E+01
  0.1261E+01
  0.1261E+01
  0.1261E+01
  0.1261E+01
  0.1261E+01
  0.1261E+01
  0.1261E+01
  0.1261E+01
  0.1261E+01
  0.1261E+01
  0.1261E+01
  0.1261E+01
  0.1261E+01
  0.1261E+01
  0.1261E+01
  0.1261E+01
  0.1261E+01
  0.1261E+01
  0.1261E+01
  0.1258E+01
  0.1247E+01
  0.1212E+01
  0.1139E+01
  0.1031E+01
  0.9089E+00
  0.7899E+00
  0.6835E+00
  0.6044E+00
  0.5481E+00
  0.5460E+00
  0.5759E+00
  0.5935E+00
  0.5854E+00
  0.5523E+00
  0.5121E+00
  0.4893E+00
  0.4691E+00
  0.4246E+00
  0.3592E+00
  0.2946E+00
  0.2431E+00
  0.2123E+00
  0.2017E+00
  0.2001E+00
  0.2000E+00
  0.2000E+00
  0.2000E+00
  0.2000E+00
  0.2000E+00
  0.2000E+00
  0.2000E+00
  0.2000E+00
  0.2000E+00
  0.2000E+00
  0.2000E+00
  0.2000E+00
  0.2000E+00
  0.2000E+00
  0.2000E+00
  0.1198E+01
  0.1198E+01
  0.1198E+01
  0.1198E+01
  0.1198E+01
  0.1198E+01
  0.1198E+01
  0.1198E+01
  0.1198E+01
  0.1198E+01
  0.1198E+01
  0.1198E+01
  0.1198E+01
  0.1198E+01
  0.1198E+01
  0.1198E+01
  0.1198E+01
  0.1198E+01
  0.1198E+01
  0.1197E+01
  0.1195E+01
  0.1185E+01
  0.1155E+01
  0.1088E+01
  0.9870E+00
  0.8721E+00
  0.7615E+00
  0.6739E+00
  0.6090E+00
  0.5872E+00
  0.6035E+00
  0.5987E+00
  0.5770E+00
  0.5396E+00
  0.5070E+00
  0.4887E+00
  0.4686E+00
  0.4245E+00
  0.3612E+00
  0.3003E+00
  0.2515E+00
  0.2182E+00
  0.2036E+00
  0.2003E+00
  0.2000E+00
  0.2000E+00
  0.2000E+00
  0.2000E+00
  0.2000E+00
  0.2000E+00
  0.2000E+00
  0.2000E+00
  0.2000E+00
  0.2000E+00
  0.2000E+00
  0.2000E+00
  0.2000E+00
  0.2000E+00
  0.2000E+00
  0.2000E+00
  0.1156E+01
  0.1156E+01
  0.1156E+01
  0.1156E+01
  0.1156E+01
  0.1156E+01
  0.1156E+01
  0.1156E+01
  0.1156E+01
  0.1156E+01
  0.1156E+01
  0.1156E+01
  0.1156E+01
  0.1156E+01
  0.1156E+01
  0.1156E+01
  0.1156E+01
  0.1156E+01
  0.1156E+01
  0.1155E+01
  0.1153E+01
  0.1144E+01
  0.1115E+01
  0.1053E+01
  0.9585E+00
  0.8531E+00
  0.7545E+00
  0.6831E+00
  0.6425E+00
  0.6278E+00
  0.6078E+00
  0.5654E+00
  0.5207E+00
  0.4998E+00
  0.4893E+00
  0.4691E+00
  0.4242E+00
  0.3606E+00
  0.3009E+00
  0.2555E+00
  0.2230E+00
  0.2059E+00
  0.2008E+00
  0.2001E+00
  0.2000E+00
  0.2000E+00
  0.2000E+00
  0.2000E+00
  0.2000E+00
  0.2000E+00
  0.2000E+00
  0.2000E+00
  0.2000E+00
  0.2000E+00
  0.2000E+00
  0.2000E+00
  0.2000E+00
  0.2000E+00
  0.2000E+00
  0.2000E+00
  0.1086E+01
  0.1086E+01
  0.1086E+01
  0.1086E+01
  0.1086E+01
  0.1086E+01
  0.1086E+01
  0.1086E+01
  0.1086E+01
  0.1086E+01
  0.1086E+01
  0.1086E+01
  0.1086E+01
  0.1086E+01
  0.1086E+01
  0.1086E+01
  0.1086E+01
  0.1086E+01
  0.1086E+01
  0.1086E+01
  0.1084E+01
  0.1074E+01
  0.1046E+01
  0.9877E+00
  0.9042E+00
  0.8153E+00
  0.7389E+00
  0.6826E+00
  0.6442E+00
  0.6071E+00
  0.5518E+00
  0.5092E+00
  0.4965E+00
  0.4905E+00
  0.4721E+00
  0.4248E+00
  0.3608E+00
  0.3007E+00
  0.2556E+00
  0.2253E+00
  0.2079E+00
  0.2013E+00
  0.2001E+00
  0.2000E+00
  0.2000E+00
  0.2000E+00
  0.2000E+00
  0.2000E+00
  0.2000E+00
  0.2000E+00
  0.2000E+00
  0.2000E+00
  0.2000E+00
  0.2000E+00
  0.2000E+00
  0.2000E+00
  0.2000E+00
  0.2000E+00
  0.2000E+00
  0.2000E+00
  0.9601E+00
  0.9601E+00
  0.9601E+00
  0.9601E+00
  0.9601E+00
  0.9601E+00
  0.9601E+00
  0.9601E+00
  0.9601E+00
  0.9601E+00
  0.9601E+00
  0.9601E+00
  0.9601E+00
  0.9601E+00
  0.9601E+00
  0.9601E+00
  0.9601E+00
  0.9601E+00
  0.9600E+00
  0.9595E+00
  0.9570E+00
  0.9468E+00
  0.9199E+00
  0.8700E+00
  0.8043E+00
  0.7376E+00
  0.6814E+00
  0.6389E+00
  0.5940E+00
  0.5468E+00
  0.5143E+00
  0.5025E+00
  0.4942E+00
  0.4731E+00
  0.4239E+00
  0.3594E+00
  0.3002E+00
  0.2555E+00
  0.2253E+00
  0.2088E+00
  0.2019E+00
  0.2002E+00
  0.2000E+00
  0.2000E+00
  0.2000E+00
  0.2000E+00
  0.2000E+00
  0.2000E+00
  0.2000E+00
  0.2000E+00
  0.2000E+00
  0.2000E+00
  0.2000E+00
  0.2000E+00
  0.2000E+00
  0.2000E+00
  0.2000E+00
  0.2000E+00
  0.2000E+00
  0.2000E+00
  0.8211E+00
  0.8211E+00
  0.8211E+00
  0.8211E+00
  0.8211E+00
  0.8211E+00
  0.8211E+00
  0.8211E+00
  0.8211E+00
  0.8211E+00
  0.8211E+00
  0.8211E+00
  0.8211E+00
  0.8211E+00
  0.8211E+00
  0.8211E+00
  0.8211E+00
  0.8211E+00
  0.8210E+00
  0.8204E+00
  0.8173E+00
  0.8069E+00
  0.7826E+00
  0.7434E+00
  0.6979E+00
  0.6528E+00
  0.6151E+00
  0.5813E+00
  0.5539E+00
  0.5330E+00
  0.5170E+00
  0.5022E+00
  0.4734E+00
  0.4176E+00
  0.3525E+00
  0.2947E+00
  0.2516E+00
  0.2230E+00
  0.2080E+00
  0.2019E+00
  0.2003E+00
  0.2000E+00
  0.2000E+00
  0.2000E+00
  0.2000E+00
  0.2000E+00
  0.2000E+00
  0.2000E+00
  0.2000E+00
  0.2000E+00
  0.2000E+00
  0.2000E+00
  0.2000E+00
  0.2000E+00
  0.2000E+00
  0.2000E+00
  0.2000E+00
  0.2000E+00
  0.2000E+00
  0.2000E+00
  0.7408E+00
  0.7408E+00
  0.7408E+00
  0.7408E+00
  0.7408E+00
  0.7408E+00
  0.7408E+00
  0.7408E+00
  0.7408E+00
  0.7408E+00
  0.7408E+00
  0.7408E+00
  0.7408E+00
  0.7408E+00
  0.7408E+00
  0.7408E+00
  0.7408E+00
  0.7408E+00
  0.7407E+00
  0.7400E+00
  0.7366E+00
  0.7263E+00
  0.7052E+00
  0.6760E+00
  0.6457E+00
  0.6183E+00
  0.5948E+00
  0.5724E+00
  0.5530E+00
  0.5327E+00
  0.5087E+00
  0.4653E+00
  0.4013E+00
  0.3367E+00
  0.2827E+00
  0.2432E+00
  0.2183E+00
  0.2059E+00
  0.2014E+00
  0.2002E+00
  0.2000E+00
  0.2000E+00
  0.2000E+00
  0.2000E+00
  0.2000E+00
  0.2000E+00
  0.2000E+00
  0.2000E+00
  0.2000E+00
  0.2000E+00
  0.2000E+00
  0.2000E+00
  0.2000E+00
  0.2000E+00
  0.2000E+00
  0.2000E+00
  0.2000E+00
  0.2000E+00
  0.2000E+00
  0.2000E+00
  0.7168E+00
  0.7168E+00
  0.7168E+00
  0.7168E+00
  0.7168E+00
  0.7168E+00
  0.7168E+00
  0.7168E+00
  0.7168E+00
  0.7168E+00
  0.7168E+00
  0.7168E+00
  0.7168E+00
  0.7168E+00
  0.7168E+00
  0.7168E+00
  0.7168E+00
  0.7168E+00
  0.7166E+00
  0.7158E+00
  0.7123E+00
  0.7022E+00
  0.6833E+00
  0.6589E+00
  0.6340E+00
  0.6104E+00
  0.5881E+00
  0.5635E+00
  0.5343E+00
  0.4929E+00
  0.4346E+00
  0.3691E+00
  0.3106E+00
  0.2642E+00
  0.2315E+00
  0.2123E+00
  0.2036E+00
  0.2008E+00
  0.2001E+00
  0.2000E+00
  0.2000E+00
  0.2000E+00
  0.2000E+00
  0.2000E+00
  0.2000E+00
  0.2000E+00
  0.2000E+00
  0.2000E+00
  0.2000E+00
  0.2000E+00
  0.2000E+00
  0.2000E+00
  0.2000E+00
  0.2000E+00
  0.2000E+00
  0.2000E+00
  0.2000E+00
  0.2000E+00
  0.2000E+00
  0.2000E+00
  0.6659E+00
  0.6659E+00
  0.6659E+00
  0.6659E+00
  0.6659E+00
  0.6659E+00
  0.6659E+00
  0.6659E+00
  0.6659E+00
  0.6659E+00
  0.6659E+00
  0.6659E+00
  0.6659E+00
  0.6659E+00
  0.6659E+00
  0.6659E+00
  0.6659E+00
  0.6659E+00
  0.6658E+00
  0.6649E+00
  0.6612E+00
  0.6515E+00
  0.6349E+00
  0.6135E+00
  0.5887E+00
  0.5592E+00
  0.5234E+00
  0.4792E+00
  0.4266E+00
  0.3719E+00
  0.3198E+00
  0.2753E+00
  0.2411E+00
  0.2185E+00
  0.2065E+00
  0.2017E+00
  0.2003E+00
  0.2001E+00
  0.2000E+00
  0.2000E+00
  0.2000E+00
  0.2000E+00
  0.2000E+00
  0.2000E+00
  0.2000E+00
  0.2000E+00
  0.2000E+00
  0.2000E+00
  0.2000E+00
  0.2000E+00
  0.2000E+00
  0.2000E+00
  0.2000E+00
  0.2000E+00
  0.2000E+00
  0.2000E+00
  0.2000E+00
  0.2000E+00
  0.2000E+00
  0.2000E+00
  0.4844E+00
  0.4844E+00
  0.4844E+00
  0.4844E+00
  0.4844E+00
  0.4844E+00
  0.4844E+00
  0.4844E+00
  0.4844E+00
  0.4844E+00
  0.4844E+00
  0.4844E+00
  0.4844E+00
  0.4844E+00
  0.4844E+00
  0.4844E+00
  0.4844E+00
  0.4844E+00
  0.4843E+00
  0.4836E+00
  0.4810E+00
  0.4745E+00
  0.4632E+00
  0.4470E+00
  0.4252E+00
  0.3974E+00
  0.3652E+00
  0.3307E+00
  0.2962E+00
  0.2643E+00
  0.2377E+00
  0.2186E+00
  0.2074E+00
  0.2023E+00
  0.2005E+00
  0.2001E+00
  0.2000E+00
  0.2000E+00
  0.2000E+00
  0.2000E+00
  0.2000E+00
  0.2000E+00
  0.2000E+00
  0.2000E+00
  0.2000E+00
  0.2000E+00
  0.2000E+00
  0.2000E+00
  0.2000E+00
  0.2000E+00
  0.2000E+00
  0.2000E+00
  0.2000E+00
  0.2000E+00
  0.2000E+00
  0.2000E+00
  0.2000E+00
  0.2000E+00
  0.2000E+00
  0.2000E+00
  0.2993E+00
  0.2993E+00
  0.2993E+00
  0.2993E+00
  0.2993E+00
  0.2993E+00
  0.2993E+00
  0.2993E+00
  0.2993E+00
  0.2993E+00
  0.2993E+00
  0.2993E+00
  0.2993E+00
  0.2993E+00
  0.2993E+00
  0.2993E+00
  0.2993E+00
  0.2993E+00
  0.2993E+00
  0.2990E+00
  0.2981E+00
  0.2959E+00
  0.2917E+00
  0.2849E+00
  0.2752E+00
  0.2628E+00
  0.2486E+00
  0.2339E+00
  0.2208E+00
  0.2108E+00
  0.2047E+00
  0.2016E+00
  0.2004E+00
  0.2001E+00
  0.2000E+00
  0.2000E+00
  0.2000E+00
  0.2000E+00
  0.2000E+00
  0.2000E+00
  0.2000E+00
  0.2000E+00
  0.2000E+00
  0.2000E+00
  0.2000E+00
  0.2000E+00
  0.2000E+00
  0.2000E+00
  0.2000E+00
  0.2000E+00
  0.2000E+00
  0.2000E+00
  0.2000E+00
  0.2000E+00
  0.2000E+00
  0.2000E+00
  0.2000E+00
  0.2000E+00
  0.2000E+00
  0.2000E+00
  0.2156E+00
  0.2156E+00
  0.2156E+00
  0.2156E+00
  0.2156E+00
  0.2156E+00
  0.2156E+00
  0.2156E+00
  0.2156E+00
  0.2156E+00
  0.2156E+00
  0.2156E+00
  0.2156E+00
  0.2156E+00
  0.2156E+00
  0.2156E+00
  0.2156E+00
  0.2156E+00
  0.2155E+00
  0.2155E+00
  0.2153E+00
  0.2148E+00
  0.2137E+00
  0.2121E+00
  0.2097E+00
  0.2071E+00
  0.2045E+00
  0.2025E+00
  0.2011E+00
  0.2004E+00
  0.2001E+00
  0.2000E+00
  0.2000E+00
  0.2000E+00
  0.2000E+00
  0.2000E+00
  0.2000E+00
  0.2000E+00
  0.2000E+00
  0.2000E+00
  0.2000E+00
  0.2000E+00
  0.2000E+00
  0.2000E+00
  0.2000E+00
  0.2000E+00
  0.2000E+00
  0.2000E+00
  0.2000E+00
  0.2000E+00
  0.2000E+00
  0.2000E+00
  0.2000E+00
  0.2000E+00
  0.2000E+00
  0.2000E+00
  0.2000E+00
  0.2000E+00
  0.2000E+00
  0.2000E+00
  0.2003E+00
  0.2003E+00
  0.2003E+00
  0.2003E+00
  0.2003E+00
  0.2003E+00
  0.2003E+00
  0.2003E+00
  0.2003E+00
  0.2003E+00
  0.2003E+00
  0.2003E+00
  0.2003E+00
  0.2003E+00
  0.2003E+00
  0.2003E+00
  0.2003E+00
  0.2003E+00
  0.2003E+00
  0.2003E+00
  0.2003E+00
  0.2003E+00
  0.2002E+00
  0.2002E+00
  0.2001E+00
  0.2001E+00
  0.2000E+00
  0.2000E+00
  0.2000E+00
  0.2000E+00
  0.2000E+00
  0.2000E+00
  0.2000E+00
  0.2000E+00
  0.2000E+00
  0.2000E+00
  0.2000E+00
  0.2000E+00
  0.2000E+00
  0.2000E+00
  0.2000E+00
  0.2000E+00
  0.2000E+00
  0.2000E+00
  0.2000E+00
  0.2000E+00
  0.2000E+00
  0.2000E+00
  0.2000E+00
  0.2000E+00
  0.2000E+00
  0.2000E+00
  0.2000E+00
  0.2000E+00
  0.2000E+00
  0.2000E+00
  0.2000E+00
  0.2000E+00
  0.2000E+00
  0.2000E+00
  0.2000E+00
  0.2000E+00
  0.2000E+00
  0.2000E+00
  0.2000E+00
  0.2000E+00
  0.2000E+00
  0.2000E+00
  0.2000E+00
  0.2000E+00
  0.2000E+00
  0.2000E+00
  0.2000E+00
  0.2000E+00
  0.2000E+00
  0.2000E+00
  0.2000E+00
  0.2000E+00
  0.2000E+00
  0.2000E+00
  0.2000E+00
  0.2000E+00
  0.2000E+00
  0.2000E+00
  0.2000E+00
  0.2000E+00
  0.2000E+00
  0.2000E+00
  0.2000E+00
  0.2000E+00
  0.2000E+00
  0.2000E+00
  0.2000E+00
  0.2000E+00
  0.2000E+00
  0.2000E+00
  0.2000E+00
  0.2000E+00
  0.2000E+00
  0.2000E+00
  0.2000E+00
  0.2000E+00
  0.2000E+00
  0.2000E+00
  0.2000E+00
  0.2000E+00
  0.2000E+00
  0.2000E+00
  0.2000E+00
  0.2000E+00
  0.2000E+00
  0.2000E+00
  0.2000E+00
  0.2000E+00
  0.2000E+00
  0.2000E+00
  0.2000E+00
  0.2000E+00
  0.2000E+00
  0.2000E+00
  0.2000E+00
  0.2000E+00
  0.2000E+00
  0.2000E+00
  0.2000E+00
  0.2000E+00
  0.2000E+00
  0.2000E+00
  0.2000E+00
  0.2000E+00
  0.2000E+00
  0.2000E+00
  0.2000E+00
  0.2000E+00
  0.2000E+00
  0.2000E+00
  0.2000E+00
  0.2000E+00
  0.2000E+00
  0.2000E+00
  0.2000E+00
  0.2000E+00
  0.2000E+00
  0.2000E+00
  0.2000E+00
  0.2000E+00
  0.2000E+00
  0.2000E+00
  0.2000E+00
  0.2000E+00
  0.2000E+00
  0.2000E+00
  0.2000E+00
  0.2000E+00
  0.2000E+00
  0.2000E+00
  0.2000E+00
  0.2000E+00
  0.2000E+00
  0.2000E+00
  0.2000E+00
  0.2000E+00
  0.2000E+00
  0.2000E+00
  0.2000E+00
  0.2000E+00
  0.2000E+00
  0.2000E+00
  0.2000E+00
  0.2000E+00
  0.2000E+00
  0.2000E+00
  0.2000E+00
  0.2000E+00
  0.2000E+00
  0.2000E+00
  0.2000E+00
  0.2000E+00
  0.2000E+00
  0.2000E+00
  0.2000E+00
  0.2000E+00
  0.2000E+00
  0.2000E+00
  0.2000E+00
  0.2000E+00
  0.2000E+00
  0.2000E+00
  0.2000E+00
  0.2000E+00
  0.2000E+00
  0.2000E+00
  0.2000E+00
  0.2000E+00
  0.2000E+00
  0.2000E+00
  0.2000E+00
  0.2000E+00
  0.2000E+00
  0.2000E+00
  0.2000E+00
  0.2000E+00
  0.2000E+00
  0.2000E+00
  0.2000E+00
  0.2000E+00
  0.2000E+00
  0.2000E+00
  0.2000E+00
  0.2000E+00
  0.2000E+00
  0.2000E+00
  0.2000E+00
  0.2000E+00
  0.2000E+00
  0.2000E+00
  0.2000E+00
  0.2000E+00
  0.2000E+00
  0.2000E+00
  0.2000E+00
  0.2000E+00
  0.2000E+00
  0.2000E+00
  0.2000E+00
  0.2000E+00
  0.2000E+00
  0.2000E+00
  0.2000E+00
  0.2000E+00
  0.2000E+00
  0.2000E+00
  0.2000E+00
  0.2000E+00
  0.2000E+00
  0.2000E+00
  0.2000E+00
  0.2000E+00
  0.2000E+00
  0.2000E+00
  0.2000E+00
  0.2000E+00
  0.2000E+00
  0.2000E+00
  0.2000E+00
  0.2000E+00
  0.2000E+00
  0.2000E+00
  0.2000E+00
  0.2000E+00
  0.2000E+00
  0.2000E+00
  0.2000E+00
  0.2000E+00
  0.2000E+00
  0.2000E+00
  0.2000E+00
  0.2000E+00
  0.2000E+00
  0.2000E+00
  0.2000E+00
  0.2000E+00
  0.2000E+00
  0.2000E+00
  0.2000E+00
  0.2000E+00
  0.2000E+00
  0.2000E+00
  0.2000E+00
  0.2000E+00
  0.2000E+00
  0.2000E+00
  0.2000E+00
  0.2000E+00
  0.2000E+00
  0.2000E+00
  0.2000E+00
  0.2000E+00
  0.2000E+00
  0.2000E+00
  0.2000E+00
  0.2000E+00
  0.2000E+00
  0.2000E+00
  0.2000E+00
  0.2000E+00
  0.2000E+00
  0.2000E+00
  0.2000E+00
  0.2000E+00
  0.2000E+00
  0.2000E+00
  0.2000E+00
  0.2000E+00
  0.2000E+00
  0.2000E+00
  0.2000E+00
  0.2000E+00
  0.2000E+00
  0.2000E+00
  0.2000E+00
  0.2000E+00
  0.2000E+00
  0.2000E+00
  0.2000E+00
  0.2000E+00
  0.2000E+00
  0.2000E+00
  0.2000E+00
  0.2000E+00
  0.2000E+00
  0.2000E+00
  0.2000E+00
  0.2000E+00
  0.2000E+00
  0.2000E+00
  0.2000E+00
  0.2000E+00
  0.2000E+00
  0.2000E+00
  0.2000E+00
  0.2000E+00
  0.2000E+00
  0.2000E+00
  0.2000E+00
  0.2000E+00
  0.2000E+00
  0.2000E+00
  0.2000E+00
  0.2000E+00
  0.2000E+00
  0.2000E+00
  0.2000E+00
  0.2000E+00
  0.2000E+00
  0.2000E+00
  0.2000E+00
  0.2000E+00
  0.2000E+00
  0.2000E+00
  0.2000E+00
  0.2000E+00
  0.2000E+00
  0.2000E+00
  0.2000E+00
  0.2000E+00
  0.2000E+00
  0.2000E+00
  0.2000E+00
  0.2000E+00
  0.2000E+00
  0.2000E+00
  0.2000E+00
  0.2000E+00
  0.2000E+00
  0.2000E+00
  0.2000E+00
  0.2000E+00
  0.2000E+00
  0.2000E+00
  0.2000E+00
  0.2000E+00
  0.2000E+00
  0.2000E+00
  0.2000E+00
  0.2000E+00
  0.2000E+00
  0.2000E+00
  0.2000E+00
  0.2000E+00
  0.2000E+00
  0.2000E+00
  0.2000E+00
  0.2000E+00
  0.2000E+00
  0.2000E+00
  0.2000E+00
  0.2000E+00
  0.2000E+00
  0.2000E+00
  0.2000E+00
  0.2000E+00
  0.2000E+00
  0.2000E+00
  0.2000E+00
  0.2000E+00
  0.2000E+00
  0.2000E+00
  0.2000E+00
  0.2000E+00
  0.2000E+00
  0.2000E+00
  0.2000E+00
  0.2000E+00
  0.2000E+00
  0.2000E+00
  0.2000E+00
  0.2000E+00
  0.2000E+00
  0.2000E+00
  0.2000E+00
  0.2000E+00
  0.2000E+00
  0.2000E+00
  0.2000E+00
  0.2000E+00
  0.2000E+00
  0.2000E+00
  0.2000E+00
  0.2000E+00
  0.2000E+00
  0.2000E+00
  0.2000E+00
  0.2000E+00
  0.2000E+00
  0.2000E+00
  0.2000E+00
  0.2000E+00
  0.2000E+00
  0.2000E+00
  0.2000E+00
  0.2000E+00
  0.2000E+00
  0.2000E+00