# vtk DataFile Version 3.0
vtk output
ASCII
DATASET RECTILINEAR_GRID
DIMENSIONS          61          61 1
X_COORDINATES    61 double
  0.0000E+00
  0.1667E+00
  0.3333E+00
  0.5000E+00
  0.6667E+00
  0.8333E+00
  0.1000E+01
  0.1167E+01
  0.1333E+01
  0.1500E+01
  0.1667E+01
  0.1833E+01
  0.2000E+01
  0.2167E+01
  0.2333E+01
  0.2500E+01
  0.2667E+01
  0.2833E+01
  0.3000E+01
  0.3167E+01
  0.3333E+01
  0.3500E+01
  0.3667E+01
  0.3833E+01
  0.4000E+01
  0.4167E+01
  0.4333E+01
  0.4500E+01
  0.4667E+01
  0.4833E+01
  0.5000E+01
  0.5167E+01
  0.5333E+01
  0.5500E+01
  0.5667E+01
  0.5833E+01
  0.6000E+01
  0.6167E+01
  0.6333E+01
  0.6500E+01
  0.6667E+01
  0.6833E+01
  0.7000E+01
  0.7167E+01
  0.7333E+01
  0.7500E+01
  0.7667E+01
  0.7833E+01
  0.8000E+01
  0.8167E+01
  0.8333E+01
  0.8500E+01
  0.8667E+01
  0.8833E+01
  0.9000E+01
  0.9167E+01
  0.9333E+01
  0.9500E+01
  0.9667E+01
  0.9833E+01
  0.1000E+02
Y_COORDINATES    61 double
  0.0000E+00
  0.1667E+00
  0.3333E+00
  0.5000E+00
  0.6667E+00
  0.8333E+00
  0.1000E+01
  0.1167E+01
  0.1333E+01
  0.1500E+01
  0.1667E+01
  0.1833E+01
  0.2000E+01
  0.2167E+01
  0.2333E+01
  0.2500E+01
  0.2667E+01
  0.2833E+01
  0.3000E+01
  0.3167E+01
  0.3333E+01
  0.3500E+01
  0.3667E+01
  0.3833E+01
  0.4000E+01
  0.4167E+01
  0.4333E+01
  0.4500E+01
  0.4667E+01
  0.4833E+01
  0.5000E+01
  0.5167E+01
  0.5333E+01
  0.5500E+01
  0.5667E+01
  0.5833E+01
  0.6000E+01
  0.6167E+01
  0.6333E+01
  0.6500E+01
  0.6667E+01
  0.6833E+01
  0.7000E+01
  0.7167E+01
  0.7333E+01
  0.7500E+01
  0.7667E+01
  0.7833E+01
  0.8000E+01
  0.8167E+01
  0.8333E+01
  0.8500E+01
  0.8667E+01
  0.8833E+01
  0.9000E+01
  0.9167E+01
  0.9333E+01
  0.9500E+01
  0.9667E+01
  0.9833E+01
  0.1000E+02
Z_COORDINATES 1 double
0
CELL_DATA                 3600
FIELD FieldData 4
density 1                 3600 double
  0.4741E+01
  0.4741E+01
  0.4741E+01
  0.4741E+01
  0.4741E+01
  0.4741E+01
  0.4741E+01
  0.4741E+01
  0.4741E+01
  0.4741E+01
  0.4741E+01
  0.4741E+01
  0.4741E+01
  0.4741E+01
  0.4741E+01
  0.4737E+01
  0.4723E+01
  0.4678E+01
  0.4572E+01
  0.4388E+01
  0.4145E+01
  0.3875E+01
  0.3602E+01
  0.3338E+01
  0.3089E+01
  0.2858E+01
  0.2644E+01
  0.2446E+01
  0.2263E+01
  0.2093E+01
  0.1935E+01
  0.1788E+01
  0.1650E+01
  0.1525E+01
  0.1413E+01
  0.1321E+01
  0.1256E+01
  0.1216E+01
  0.1198E+01
  0.1191E+01
  0.1180E+01
  0.1138E+01
  0.1033E+01
  0.8968E+00
  0.7719E+00
  0.6968E+00
  0.6862E+00
  0.6876E+00
  0.6580E+00
  0.4780E+00
  0.2945E+00
  0.2145E+00
  0.2003E+00
  0.2000E+00
  0.2000E+00
  0.2000E+00
  0.2000E+00
  0.2000E+00
  0.2000E+00
  0.2000E+00
  0.4595E+01
  0.4595E+01
  0.4595E+01
  0.4595E+01
  0.4595E+01
  0.4595E+01
  0.4595E+01
  0.4595E+01
  0.4595E+01
  0.4595E+01
  0.4595E+01
  0.4595E+01
  0.4595E+01
  0.4595E+01
  0.4594E+01
  0.4591E+01
  0.4578E+01
  0.4534E+01
  0.4432E+01
  0.4255E+01
  0.4020E+01
  0.3759E+01
  0.3495E+01
  0.3240E+01
  0.2999E+01
  0.2776E+01
  0.2570E+01
  0.2379E+01
  0.2204E+01
  0.2041E+01
  0.1890E+01
  0.1748E+01
  0.1616E+01
  0.1496E+01
  0.1389E+01
  0.1300E+01
  0.1239E+01
  0.1202E+01
  0.1185E+01
  0.1179E+01
  0.1169E+01
  0.1126E+01
  0.1021E+01
  0.8847E+00
  0.7602E+00
  0.6866E+00
  0.6773E+00
  0.6792E+00
  0.6504E+00
  0.4728E+00
  0.2926E+00
  0.2140E+00
  0.2003E+00
  0.2000E+00
  0.2000E+00
  0.2000E+00
  0.2000E+00
  0.2000E+00
  0.2000E+00
  0.2000E+00
  0.4347E+01
  0.4347E+01
  0.4347E+01
  0.4347E+01
  0.4347E+01
  0.4347E+01
  0.4347E+01
  0.4347E+01
  0.4347E+01
  0.4347E+01
  0.4347E+01
  0.4347E+01
  0.4347E+01
  0.4347E+01
  0.4347E+01
  0.4344E+01
  0.4331E+01
  0.4292E+01
  0.4197E+01
  0.4031E+01
  0.3809E+01
  0.3562E+01
  0.3311E+01
  0.3070E+01
  0.2842E+01
  0.2631E+01
  0.2437E+01
  0.2258E+01
  0.2093E+01
  0.1941E+01
  0.1800E+01
  0.1668E+01
  0.1545E+01
  0.1433E+01
  0.1334E+01
  0.1253E+01
  0.1197E+01
  0.1165E+01
  0.1151E+01
  0.1147E+01
  0.1138E+01
  0.1096E+01
  0.9921E+00
  0.8585E+00
  0.7376E+00
  0.6688E+00
  0.6620E+00
  0.6657E+00
  0.6376E+00
  0.4631E+00
  0.2886E+00
  0.2130E+00
  0.2002E+00
  0.2000E+00
  0.2000E+00
  0.2000E+00
  0.2000E+00
  0.2000E+00
  0.2000E+00
  0.2000E+00
  0.4060E+01
  0.4060E+01
  0.4060E+01
  0.4060E+01
  0.4060E+01
  0.4060E+01
  0.4060E+01
  0.4060E+01
  0.4060E+01
  0.4060E+01
  0.4060E+01
  0.4060E+01
  0.4060E+01
  0.4060E+01
  0.4060E+01
  0.4057E+01
  0.4046E+01
  0.4011E+01
  0.3925E+01
  0.3771E+01
  0.3564E+01
  0.3332E+01
  0.3096E+01
  0.2869E+01
  0.2655E+01
  0.2457E+01
  0.2275E+01
  0.2108E+01
  0.1954E+01
  0.1812E+01
  0.1681E+01
  0.1559E+01
  0.1446E+01
  0.1343E+01
  0.1252E+01
  0.1179E+01
  0.1129E+01
  0.1101E+01
  0.1090E+01
  0.1088E+01
  0.1082E+01
  0.1042E+01
  0.9449E+00
  0.8205E+00
  0.7087E+00
  0.6481E+00
  0.6440E+00
  0.6506E+00
  0.6216E+00
  0.4480E+00
  0.2821E+00
  0.2115E+00
  0.2002E+00
  0.2000E+00
  0.2000E+00
  0.2000E+00
  0.2000E+00
  0.2000E+00
  0.2000E+00
  0.2000E+00
  0.3767E+01
  0.3767E+01
  0.3767E+01
  0.3767E+01
  0.3767E+01
  0.3767E+01
  0.3767E+01
  0.3767E+01
  0.3767E+01
  0.3767E+01
  0.3767E+01
  0.3767E+01
  0.3767E+01
  0.3767E+01
  0.3766E+01
  0.3764E+01
  0.3755E+01
  0.3724E+01
  0.3646E+01
  0.3506E+01
  0.3314E+01
  0.3097E+01
  0.2876E+01
  0.2662E+01
  0.2461E+01
  0.2276E+01
  0.2105E+01
  0.1949E+01
  0.1805E+01
  0.1673E+01
  0.1551E+01
  0.1438E+01
  0.1333E+01
  0.1238E+01
  0.1155E+01
  0.1087E+01
  0.1043E+01
  0.1016E+01
  0.1007E+01
  0.1007E+01
  0.1003E+01
  0.9707E+00
  0.8863E+00
  0.7773E+00
  0.6780E+00
  0.6267E+00
  0.6262E+00
  0.6351E+00
  0.6023E+00
  0.4281E+00
  0.2734E+00
  0.2094E+00
  0.2001E+00
  0.2000E+00
  0.2000E+00
  0.2000E+00
  0.2000E+00
  0.2000E+00
  0.2000E+00
  0.2000E+00
  0.3482E+01
  0.3482E+01
  0.3482E+01
  0.3482E+01
  0.3482E+01
  0.3482E+01
  0.3482E+01
  0.3482E+01
  0.3482E+01
  0.3482E+01
  0.3482E+01
  0.3482E+01
  0.3482E+01
  0.3482E+01
  0.3482E+01
  0.3480E+01
  0.3472E+01
  0.3445E+01
  0.3376E+01
  0.3249E+01
  0.3071E+01
  0.2869E+01
  0.2662E+01
  0.2462E+01
  0.2273E+01
  0.2099E+01
  0.1939E+01
  0.1792E+01
  0.1658E+01
  0.1535E+01
  0.1421E+01
  0.1316E+01
  0.1218E+01
  0.1131E+01
  0.1054E+01
  0.9919E+00
  0.9508E+00
  0.9247E+00
  0.9156E+00
  0.9173E+00
  0.9168E+00
  0.8958E+00
  0.8274E+00
  0.7348E+00
  0.6469E+00
  0.6064E+00
  0.6093E+00
  0.6196E+00
  0.5788E+00
  0.4040E+00
  0.2626E+00
  0.2070E+00
  0.2001E+00
  0.2000E+00
  0.2000E+00
  0.2000E+00
  0.2000E+00
  0.2000E+00
  0.2000E+00
  0.2000E+00
  0.3213E+01
  0.3213E+01
  0.3213E+01
  0.3213E+01
  0.3213E+01
  0.3213E+01
  0.3213E+01
  0.3213E+01
  0.3213E+01
  0.3213E+01
  0.3213E+01
  0.3213E+01
  0.3213E+01
  0.3213E+01
  0.3213E+01
  0.3212E+01
  0.3205E+01
  0.3182E+01
  0.3121E+01
  0.3007E+01
  0.2843E+01
  0.2655E+01
  0.2461E+01
  0.2273E+01
  0.2096E+01
  0.1933E+01
  0.1783E+01
  0.1645E+01
  0.1519E+01
  0.1404E+01
  0.1298E+01
  0.1199E+01
  0.1109E+01
  0.1027E+01
  0.9558E+00
  0.8985E+00
  0.8603E+00
  0.8330E+00
  0.8261E+00
  0.8293E+00
  0.8337E+00
  0.8258E+00
  0.7761E+00
  0.6957E+00
  0.6169E+00
  0.5880E+00
  0.5945E+00
  0.6043E+00
  0.5501E+00
  0.3755E+00
  0.2503E+00
  0.2047E+00
  0.2000E+00
  0.2000E+00
  0.2000E+00
  0.2000E+00
  0.2000E+00
  0.2000E+00
  0.2000E+00
  0.2000E+00
  0.2964E+01
  0.2964E+01
  0.2964E+01
  0.2964E+01
  0.2964E+01
  0.2964E+01
  0.2964E+01
  0.2964E+01
  0.2964E+01
  0.2964E+01
  0.2964E+01
  0.2964E+01
  0.2964E+01
  0.2964E+01
  0.2964E+01
  0.2963E+01
  0.2957E+01
  0.2937E+01
  0.2885E+01
  0.2782E+01
  0.2633E+01
  0.2457E+01
  0.2276E+01
  0.2099E+01
  0.1933E+01
  0.1779E+01
  0.1638E+01
  0.1509E+01
  0.1391E+01
  0.1283E+01
  0.1184E+01
  0.1092E+01
  0.1007E+01
  0.9308E+00
  0.8646E+00
  0.8112E+00
  0.7749E+00
  0.7479E+00
  0.7434E+00
  0.7498E+00
  0.7644E+00
  0.7649E+00
  0.7353E+00
  0.6607E+00
  0.5885E+00
  0.5708E+00
  0.5821E+00
  0.5869E+00
  0.5143E+00
  0.3442E+00
  0.2374E+00
  0.2028E+00
  0.2000E+00
  0.2000E+00
  0.2000E+00
  0.2000E+00
  0.2000E+00
  0.2000E+00
  0.2000E+00
  0.2000E+00
  0.2734E+01
  0.2734E+01
  0.2734E+01
  0.2734E+01
  0.2734E+01
  0.2734E+01
  0.2734E+01
  0.2734E+01
  0.2734E+01
  0.2734E+01
  0.2734E+01
  0.2734E+01
  0.2734E+01
  0.2734E+01
  0.2733E+01
  0.2733E+01
  0.2728E+01
  0.2712E+01
  0.2666E+01
  0.2575E+01
  0.2438E+01
  0.2275E+01
  0.2105E+01
  0.1939E+01
  0.1783E+01
  0.1638E+01
  0.1505E+01
  0.1384E+01
  0.1274E+01
  0.1173E+01
  0.1079E+01
  0.9932E+00
  0.9142E+00
  0.8432E+00
  0.7814E+00
  0.7318E+00
  0.6966E+00
  0.6724E+00
  0.6705E+00
  0.6849E+00
  0.7155E+00
  0.7218E+00
  0.6986E+00
  0.6242E+00
  0.5617E+00
  0.5557E+00
  0.5725E+00
  0.5696E+00
  0.4687E+00
  0.3120E+00
  0.2253E+00
  0.2014E+00
  0.2000E+00
  0.2000E+00
  0.2000E+00
  0.2000E+00
  0.2000E+00
  0.2000E+00
  0.2000E+00
  0.2000E+00
  0.2521E+01
  0.2521E+01
  0.2521E+01
  0.2521E+01
  0.2521E+01
  0.2521E+01
  0.2521E+01
  0.2521E+01
  0.2521E+01
  0.2521E+01
  0.2521E+01
  0.2521E+01
  0.2521E+01
  0.2521E+01
  0.2521E+01
  0.2520E+01
  0.2516E+01
  0.2503E+01
  0.2464E+01
  0.2383E+01
  0.2259E+01
  0.2107E+01
  0.1948E+01
  0.1792E+01
  0.1645E+01
  0.1509E+01
  0.1384E+01
  0.1270E+01
  0.1167E+01
  0.1072E+01
  0.9847E+00
  0.9041E+00
  0.8302E+00
  0.7640E+00
  0.7061E+00
  0.6605E+00
  0.6244E+00
  0.6096E+00
  0.6126E+00
  0.6398E+00
  0.6892E+00
  0.6970E+00
  0.6632E+00
  0.5842E+00
  0.5395E+00
  0.5444E+00
  0.5625E+00
  0.5439E+00
  0.4167E+00
  0.2816E+00
  0.2151E+00
  0.2006E+00
  0.2000E+00
  0.2000E+00
  0.2000E+00
  0.2000E+00
  0.2000E+00
  0.2000E+00
  0.2000E+00
  0.2000E+00
  0.2325E+01
  0.2325E+01
  0.2325E+01
  0.2325E+01
  0.2325E+01
  0.2325E+01
  0.2325E+01
  0.2325E+01
  0.2325E+01
  0.2325E+01
  0.2325E+01
  0.2325E+01
  0.2325E+01
  0.2325E+01
  0.2325E+01
  0.2324E+01
  0.2321E+01
  0.2310E+01
  0.2277E+01
  0.2207E+01
  0.2094E+01
  0.1954E+01
  0.1805E+01
  0.1658E+01
  0.1519E+01
  0.1391E+01
  0.1274E+01
  0.1167E+01
  0.1069E+01
  0.9805E+00
  0.8989E+00
  0.8234E+00
  0.7544E+00
  0.6924E+00
  0.6384E+00
  0.5956E+00
  0.5629E+00
  0.5593E+00
  0.5725E+00
  0.6328E+00
  0.6848E+00
  0.6796E+00
  0.6193E+00
  0.5433E+00
  0.5243E+00
  0.5384E+00
  0.5515E+00
  0.5038E+00
  0.3629E+00
  0.2545E+00
  0.2077E+00
  0.2002E+00
  0.2000E+00
  0.2000E+00
  0.2000E+00
  0.2000E+00
  0.2000E+00
  0.2000E+00
  0.2000E+00
  0.2000E+00
  0.2144E+01
  0.2144E+01
  0.2144E+01
  0.2144E+01
  0.2144E+01
  0.2144E+01
  0.2144E+01
  0.2144E+01
  0.2144E+01
  0.2144E+01
  0.2144E+01
  0.2144E+01
  0.2144E+01
  0.2144E+01
  0.2144E+01
  0.2144E+01
  0.2142E+01
  0.2133E+01
  0.2105E+01
  0.2043E+01
  0.1942E+01
  0.1812E+01
  0.1673E+01
  0.1535E+01
  0.1404E+01
  0.1283E+01
  0.1172E+01
  0.1072E+01
  0.9805E+00
  0.8972E+00
  0.8206E+00
  0.7498E+00
  0.6855E+00
  0.6271E+00
  0.5775E+00
  0.5338E+00
  0.5185E+00
  0.5252E+00
  0.5710E+00
  0.6515E+00
  0.6734E+00
  0.6465E+00
  0.5654E+00
  0.5127E+00
  0.5136E+00
  0.5357E+00
  0.5319E+00
  0.4463E+00
  0.3146E+00
  0.2323E+00
  0.2033E+00
  0.2001E+00
  0.2000E+00
  0.2000E+00
  0.2000E+00
  0.2000E+00
  0.2000E+00
  0.2000E+00
  0.2000E+00
  0.2000E+00
  0.1977E+01
  0.1977E+01
  0.1977E+01
  0.1977E+01
  0.1977E+01
  0.1977E+01
  0.1977E+01
  0.1977E+01
  0.1977E+01
  0.1977E+01
  0.1977E+01
  0.1977E+01
  0.1977E+01
  0.1977E+01
  0.1977E+01
  0.1977E+01
  0.1975E+01
  0.1968E+01
  0.1945E+01
  0.1891E+01
  0.1800E+01
  0.1681E+01
  0.1551E+01
  0.1421E+01
  0.1297E+01
  0.1183E+01
  0.1079E+01
  0.9846E+00
  0.8988E+00
  0.8206E+00
  0.7486E+00
  0.6826E+00
  0.6218E+00
  0.5679E+00
  0.5187E+00
  0.4870E+00
  0.4905E+00
  0.5261E+00
  0.6046E+00
  0.6592E+00
  0.6524E+00
  0.5895E+00
  0.5139E+00
  0.4967E+00
  0.5117E+00
  0.5277E+00
  0.4959E+00
  0.3798E+00
  0.2738E+00
  0.2163E+00
  0.2012E+00
  0.2000E+00
  0.2000E+00
  0.2000E+00
  0.2000E+00
  0.2000E+00
  0.2000E+00
  0.2000E+00
  0.2000E+00
  0.2000E+00
  0.1821E+01
  0.1821E+01
  0.1821E+01
  0.1821E+01
  0.1821E+01
  0.1821E+01
  0.1821E+01
  0.1821E+01
  0.1821E+01
  0.1821E+01
  0.1821E+01
  0.1821E+01
  0.1821E+01
  0.1821E+01
  0.1821E+01
  0.1821E+01
  0.1819E+01
  0.1814E+01
  0.1795E+01
  0.1749E+01
  0.1668E+01
  0.1559E+01
  0.1437E+01
  0.1316E+01
  0.1199E+01
  0.1091E+01
  0.9931E+00
  0.9041E+00
  0.8234E+00
  0.7498E+00
  0.6826E+00
  0.6203E+00
  0.5641E+00
  0.5102E+00
  0.4668E+00
  0.4672E+00
  0.4951E+00
  0.5630E+00
  0.6394E+00
  0.6472E+00
  0.6057E+00
  0.5246E+00
  0.4861E+00
  0.4933E+00
  0.5138E+00
  0.5076E+00
  0.4334E+00
  0.3212E+00
  0.2421E+00
  0.2068E+00
  0.2003E+00
  0.2000E+00
  0.2000E+00
  0.2000E+00
  0.2000E+00
  0.2000E+00
  0.2000E+00
  0.2000E+00
  0.2000E+00
  0.2000E+00
  0.1677E+01
  0.1677E+01
  0.1677E+01
  0.1677E+01
  0.1677E+01
  0.1677E+01
  0.1677E+01
  0.1677E+01
  0.1677E+01
  0.1677E+01
  0.1677E+01
  0.1677E+01
  0.1677E+01
  0.1677E+01
  0.1677E+01
  0.1677E+01
  0.1676E+01
  0.1671E+01
  0.1656E+01
  0.1617E+01
  0.1545E+01
  0.1446E+01
  0.1333E+01
  0.1218E+01
  0.1108E+01
  0.1007E+01
  0.9141E+00
  0.8302E+00
  0.7543E+00
  0.6854E+00
  0.6218E+00
  0.5641E+00
  0.5083E+00
  0.4589E+00
  0.4559E+00
  0.4750E+00
  0.5324E+00
  0.6169E+00
  0.6420E+00
  0.6154E+00
  0.5370E+00
  0.4837E+00
  0.4829E+00
  0.4997E+00
  0.5046E+00
  0.4631E+00
  0.3629E+00
  0.2741E+00
  0.2203E+00
  0.2023E+00
  0.2001E+00
  0.2000E+00
  0.2000E+00
  0.2000E+00
  0.2000E+00
  0.2000E+00
  0.2000E+00
  0.2000E+00
  0.2000E+00
  0.2000E+00
  0.1546E+01
  0.1546E+01
  0.1546E+01
  0.1546E+01
  0.1546E+01
  0.1546E+01
  0.1546E+01
  0.1546E+01
  0.1546E+01
  0.1546E+01
  0.1546E+01
  0.1546E+01
  0.1546E+01
  0.1546E+01
  0.1546E+01
  0.1545E+01
  0.1545E+01
  0.1541E+01
  0.1529E+01
  0.1496E+01
  0.1433E+01
  0.1343E+01
  0.1238E+01
  0.1130E+01
  0.1027E+01
  0.9307E+00
  0.8431E+00
  0.7639E+00
  0.6924E+00
  0.6270E+00
  0.5678E+00
  0.5101E+00
  0.4592E+00
  0.4512E+00
  0.4630E+00
  0.5123E+00
  0.5949E+00
  0.6355E+00
  0.6212E+00
  0.5527E+00
  0.4889E+00
  0.4797E+00
  0.4899E+00
  0.4996E+00
  0.4754E+00
  0.3928E+00
  0.3039E+00
  0.2394E+00
  0.2078E+00
  0.2006E+00
  0.2000E+00
  0.2000E+00
  0.2000E+00
  0.2000E+00
  0.2000E+00
  0.2000E+00
  0.2000E+00
  0.2000E+00
  0.2000E+00
  0.2000E+00
  0.1430E+01
  0.1430E+01
  0.1430E+01
  0.1430E+01
  0.1430E+01
  0.1430E+01
  0.1430E+01
  0.1430E+01
  0.1430E+01
  0.1430E+01
  0.1430E+01
  0.1430E+01
  0.1430E+01
  0.1430E+01
  0.1430E+01
  0.1430E+01
  0.1429E+01
  0.1426E+01
  0.1417E+01
  0.1389E+01
  0.1334E+01
  0.1252E+01
  0.1155E+01
  0.1054E+01
  0.9556E+00
  0.8645E+00
  0.7813E+00
  0.7061E+00
  0.6383E+00
  0.5774E+00
  0.5188E+00
  0.4677E+00
  0.4546E+00
  0.4630E+00
  0.4943E+00
  0.5686E+00
  0.6323E+00
  0.6278E+00
  0.5693E+00
  0.5003E+00
  0.4821E+00
  0.4873E+00
  0.4955E+00
  0.4806E+00
  0.4122E+00
  0.3269E+00
  0.2588E+00
  0.2172E+00
  0.2023E+00
  0.2001E+00
  0.2000E+00
  0.2000E+00
  0.2000E+00
  0.2000E+00
  0.2000E+00
  0.2000E+00
  0.2000E+00
  0.2000E+00
  0.2000E+00
  0.2000E+00
  0.1334E+01
  0.1334E+01
  0.1334E+01
  0.1334E+01
  0.1334E+01
  0.1334E+01
  0.1334E+01
  0.1334E+01
  0.1334E+01
  0.1334E+01
  0.1334E+01
  0.1334E+01
  0.1334E+01
  0.1334E+01
  0.1334E+01
  0.1333E+01
  0.1333E+01
  0.1331E+01
  0.1323E+01
  0.1301E+01
  0.1253E+01
  0.1178E+01
  0.1087E+01
  0.9918E+00
  0.8984E+00
  0.8111E+00
  0.7317E+00
  0.6604E+00
  0.5957E+00
  0.5339E+00
  0.4873E+00
  0.4664E+00
  0.4752E+00
  0.5127E+00
  0.5697E+00
  0.6214E+00
  0.6252E+00
  0.5820E+00
  0.5131E+00
  0.4876E+00
  0.4893E+00
  0.4949E+00
  0.4833E+00
  0.4232E+00
  0.3424E+00
  0.2746E+00
  0.2280E+00
  0.2058E+00
  0.2005E+00
  0.2000E+00
  0.2000E+00
  0.2000E+00
  0.2000E+00
  0.2000E+00
  0.2000E+00
  0.2000E+00
  0.2000E+00
  0.2000E+00
  0.2000E+00
  0.2000E+00
  0.1265E+01
  0.1265E+01
  0.1265E+01
  0.1265E+01
  0.1265E+01
  0.1265E+01
  0.1265E+01
  0.1265E+01
  0.1265E+01
  0.1265E+01
  0.1265E+01
  0.1265E+01
  0.1265E+01
  0.1265E+01
  0.1265E+01
  0.1265E+01
  0.1265E+01
  0.1264E+01
  0.1258E+01
  0.1239E+01
  0.1197E+01
  0.1129E+01
  0.1043E+01
  0.9507E+00
  0.8602E+00
  0.7748E+00
  0.6965E+00
  0.6241E+00
  0.5629E+00
  0.5187E+00
  0.4896E+00
  0.4956E+00
  0.5315E+00
  0.5963E+00
  0.6324E+00
  0.6259E+00
  0.5825E+00
  0.5195E+00
  0.4918E+00
  0.4925E+00
  0.4962E+00
  0.4851E+00
  0.4296E+00
  0.3527E+00
  0.2859E+00
  0.2376E+00
  0.2105E+00
  0.2015E+00
  0.2001E+00
  0.2000E+00
  0.2000E+00
  0.2000E+00
  0.2000E+00
  0.2000E+00
  0.2000E+00
  0.2000E+00
  0.2000E+00
  0.2000E+00
  0.2000E+00
  0.2000E+00
  0.1224E+01
  0.1224E+01
  0.1224E+01
  0.1224E+01
  0.1224E+01
  0.1224E+01
  0.1224E+01
  0.1224E+01
  0.1224E+01
  0.1224E+01
  0.1224E+01
  0.1224E+01
  0.1224E+01
  0.1224E+01
  0.1224E+01
  0.1224E+01
  0.1224E+01
  0.1223E+01
  0.1218E+01
  0.1202E+01
  0.1165E+01
  0.1100E+01
  0.1016E+01
  0.9246E+00
  0.8329E+00
  0.7478E+00
  0.6723E+00
  0.6096E+00
  0.5588E+00
  0.5240E+00
  0.5272E+00
  0.5619E+00
  0.6156E+00
  0.6373E+00
  0.6278E+00
  0.5826E+00
  0.5202E+00
  0.4919E+00
  0.4924E+00
  0.4965E+00
  0.4859E+00
  0.4319E+00
  0.3585E+00
  0.2937E+00
  0.2449E+00
  0.2151E+00
  0.2029E+00
  0.2003E+00
  0.2000E+00
  0.2000E+00
  0.2000E+00
  0.2000E+00
  0.2000E+00
  0.2000E+00
  0.2000E+00
  0.2000E+00
  0.2000E+00
  0.2000E+00
  0.2000E+00
  0.2000E+00
  0.1204E+01
  0.1204E+01
  0.1204E+01
  0.1204E+01
  0.1204E+01
  0.1204E+01
  0.1204E+01
  0.1204E+01
  0.1204E+01
  0.1204E+01
  0.1204E+01
  0.1204E+01
  0.1204E+01
  0.1204E+01
  0.1204E+01
  0.1204E+01
  0.1204E+01
  0.1203E+01
  0.1199E+01
  0.1185E+01
  0.1151E+01
  0.1090E+01
  0.1007E+01
  0.9156E+00
  0.8260E+00
  0.7433E+00
  0.6704E+00
  0.6124E+00
  0.5717E+00
  0.5722E+00
  0.6034E+00
  0.6383E+00
  0.6392E+00
  0.6224E+00
  0.5686E+00
  0.5130E+00
  0.4914E+00
  0.4925E+00
  0.4945E+00
  0.4834E+00
  0.4316E+00
  0.3596E+00
  0.2979E+00
  0.2503E+00
  0.2189E+00
  0.2045E+00
  0.2006E+00
  0.2000E+00
  0.2000E+00
  0.2000E+00
  0.2000E+00
  0.2000E+00
  0.2000E+00
  0.2000E+00
  0.2000E+00
  0.2000E+00
  0.2000E+00
  0.2000E+00
  0.2000E+00
  0.2000E+00
  0.1196E+01
  0.1196E+01
  0.1196E+01
  0.1196E+01
  0.1196E+01
  0.1196E+01
  0.1196E+01
  0.1196E+01
  0.1196E+01
  0.1196E+01
  0.1196E+01
  0.1196E+01
  0.1196E+01
  0.1196E+01
  0.1196E+01
  0.1196E+01
  0.1196E+01
  0.1195E+01
  0.1192E+01
  0.1179E+01
  0.1147E+01
  0.1088E+01
  0.1007E+01
  0.9173E+00
  0.8292E+00
  0.7496E+00
  0.6848E+00
  0.6399E+00
  0.6333E+00
  0.6508E+00
  0.6604E+00
  0.6478E+00
  0.6156E+00
  0.5525E+00
  0.5004E+00
  0.4869E+00
  0.4922E+00
  0.4964E+00
  0.4838E+00
  0.4288E+00
  0.3589E+00
  0.2986E+00
  0.2533E+00
  0.2221E+00
  0.2060E+00
  0.2009E+00
  0.2001E+00
  0.2000E+00
  0.2000E+00
  0.2000E+00
  0.2000E+00
  0.2000E+00
  0.2000E+00
  0.2000E+00
  0.2000E+00
  0.2000E+00
  0.2000E+00
  0.2000E+00
  0.2000E+00
  0.2000E+00
  0.1186E+01
  0.1186E+01
  0.1186E+01
  0.1186E+01
  0.1186E+01
  0.1186E+01
  0.1186E+01
  0.1186E+01
  0.1186E+01
  0.1186E+01
  0.1186E+01
  0.1186E+01
  0.1186E+01
  0.1186E+01
  0.1186E+01
  0.1186E+01
  0.1186E+01
  0.1185E+01
  0.1181E+01
  0.1169E+01
  0.1138E+01
  0.1082E+01
  0.1003E+01
  0.9167E+00
  0.8338E+00
  0.7645E+00
  0.7155E+00
  0.6891E+00
  0.6847E+00
  0.6723E+00
  0.6533E+00
  0.6064E+00
  0.5390E+00
  0.4893E+00
  0.4821E+00
  0.4893E+00
  0.4966E+00
  0.4855E+00
  0.4313E+00
  0.3590E+00
  0.2984E+00
  0.2540E+00
  0.2240E+00
  0.2073E+00
  0.2013E+00
  0.2001E+00
  0.2000E+00
  0.2000E+00
  0.2000E+00
  0.2000E+00
  0.2000E+00
  0.2000E+00
  0.2000E+00
  0.2000E+00
  0.2000E+00
  0.2000E+00
  0.2000E+00
  0.2000E+00
  0.2000E+00
  0.2000E+00
  0.1144E+01
  0.1144E+01
  0.1144E+01
  0.1144E+01
  0.1144E+01
  0.1144E+01
  0.1144E+01
  0.1144E+01
  0.1144E+01
  0.1144E+01
  0.1144E+01
  0.1144E+01
  0.1144E+01
  0.1144E+01
  0.1144E+01
  0.1144E+01
  0.1144E+01
  0.1143E+01
  0.1139E+01
  0.1127E+01
  0.1096E+01
  0.1042E+01
  0.9706E+00
  0.8957E+00
  0.8255E+00
  0.7650E+00
  0.7217E+00
  0.6969E+00
  0.6797E+00
  0.6465E+00
  0.5883E+00
  0.5249E+00
  0.4843E+00
  0.4798E+00
  0.4871E+00
  0.4953E+00
  0.4852E+00
  0.4317E+00
  0.3596E+00
  0.2987E+00
  0.2540E+00
  0.2244E+00
  0.2081E+00
  0.2017E+00
  0.2002E+00
  0.2000E+00
  0.2000E+00
  0.2000E+00
  0.2000E+00
  0.2000E+00
  0.2000E+00
  0.2000E+00
  0.2000E+00
  0.2000E+00
  0.2000E+00
  0.2000E+00
  0.2000E+00
  0.2000E+00
  0.2000E+00
  0.2000E+00
  0.1041E+01
  0.1041E+01
  0.1041E+01
  0.1041E+01
  0.1041E+01
  0.1041E+01
  0.1041E+01
  0.1041E+01
  0.1041E+01
  0.1041E+01
  0.1041E+01
  0.1041E+01
  0.1041E+01
  0.1041E+01
  0.1041E+01
  0.1041E+01
  0.1041E+01
  0.1040E+01
  0.1035E+01
  0.1021E+01
  0.9920E+00
  0.9446E+00
  0.8860E+00
  0.8271E+00
  0.7760E+00
  0.7352E+00
  0.6986E+00
  0.6631E+00
  0.6185E+00
  0.5656E+00
  0.5139E+00
  0.4862E+00
  0.4828E+00
  0.4897E+00
  0.4955E+00
  0.4833E+00
  0.4295E+00
  0.3584E+00
  0.2979E+00
  0.2534E+00
  0.2240E+00
  0.2081E+00
  0.2019E+00
  0.2003E+00
  0.2000E+00
  0.2000E+00
  0.2000E+00
  0.2000E+00
  0.2000E+00
  0.2000E+00
  0.2000E+00
  0.2000E+00
  0.2000E+00
  0.2000E+00
  0.2000E+00
  0.2000E+00
  0.2000E+00
  0.2000E+00
  0.2000E+00
  0.2000E+00
  0.9065E+00
  0.9065E+00
  0.9065E+00
  0.9065E+00
  0.9065E+00
  0.9065E+00
  0.9065E+00
  0.9065E+00
  0.9065E+00
  0.9065E+00
  0.9065E+00
  0.9065E+00
  0.9065E+00
  0.9065E+00
  0.9065E+00
  0.9064E+00
  0.9060E+00
  0.9044E+00
  0.8989E+00
  0.8850E+00
  0.8583E+00
  0.8202E+00
  0.7770E+00
  0.7345E+00
  0.6955E+00
  0.6605E+00
  0.6242E+00
  0.5841E+00
  0.5430E+00
  0.5121E+00
  0.4975E+00
  0.4934E+00
  0.4998E+00
  0.4992E+00
  0.4810E+00
  0.4224E+00
  0.3527E+00
  0.2937E+00
  0.2503E+00
  0.2221E+00
  0.2073E+00
  0.2017E+00
  0.2003E+00
  0.2000E+00
  0.2000E+00
  0.2000E+00
  0.2000E+00
  0.2000E+00
  0.2000E+00
  0.2000E+00
  0.2000E+00
  0.2000E+00
  0.2000E+00
  0.2000E+00
  0.2000E+00
  0.2000E+00
  0.2000E+00
  0.2000E+00
  0.2000E+00
  0.2000E+00
  0.7829E+00
  0.7829E+00
  0.7829E+00
  0.7829E+00
  0.7829E+00
  0.7829E+00
  0.7829E+00
  0.7829E+00
  0.7829E+00
  0.7829E+00
  0.7829E+00
  0.7829E+00
  0.7829E+00
  0.7829E+00
  0.7829E+00
  0.7828E+00
  0.7823E+00
  0.7804E+00
  0.7744E+00
  0.7606E+00
  0.7375E+00
  0.7085E+00
  0.6778E+00
  0.6467E+00
  0.6167E+00
  0.5886E+00
  0.5617E+00
  0.5393E+00
  0.5245E+00
  0.5134E+00
  0.5119E+00
  0.5134E+00
  0.5051E+00
  0.4758E+00
  0.4114E+00
  0.3424E+00
  0.2859E+00
  0.2449E+00
  0.2190E+00
  0.2060E+00
  0.2013E+00
  0.2002E+00
  0.2000E+00
  0.2000E+00
  0.2000E+00
  0.2000E+00
  0.2000E+00
  0.2000E+00
  0.2000E+00
  0.2000E+00
  0.2000E+00
  0.2000E+00
  0.2000E+00
  0.2000E+00
  0.2000E+00
  0.2000E+00
  0.2000E+00
  0.2000E+00
  0.2000E+00
  0.2000E+00
  0.7086E+00
  0.7086E+00
  0.7086E+00
  0.7086E+00
  0.7086E+00
  0.7086E+00
  0.7086E+00
  0.7086E+00
  0.7086E+00
  0.7086E+00
  0.7086E+00
  0.7086E+00
  0.7086E+00
  0.7086E+00
  0.7085E+00
  0.7084E+00
  0.7079E+00
  0.7057E+00
  0.6996E+00
  0.6872E+00
  0.6689E+00
  0.6480E+00
  0.6267E+00
  0.6064E+00
  0.5880E+00
  0.5709E+00
  0.5556E+00
  0.5444E+00
  0.5384E+00
  0.5356E+00
  0.5271E+00
  0.5082E+00
  0.4636E+00
  0.3931E+00
  0.3267E+00
  0.2746E+00
  0.2375E+00
  0.2151E+00
  0.2045E+00
  0.2009E+00
  0.2001E+00
  0.2000E+00
  0.2000E+00
  0.2000E+00
  0.2000E+00
  0.2000E+00
  0.2000E+00
  0.2000E+00
  0.2000E+00
  0.2000E+00
  0.2000E+00
  0.2000E+00
  0.2000E+00
  0.2000E+00
  0.2000E+00
  0.2000E+00
  0.2000E+00
  0.2000E+00
  0.2000E+00
  0.2000E+00
  0.6977E+00
  0.6977E+00
  0.6977E+00
  0.6977E+00
  0.6977E+00
  0.6977E+00
  0.6977E+00
  0.6977E+00
  0.6977E+00
  0.6977E+00
  0.6977E+00
  0.6977E+00
  0.6977E+00
  0.6977E+00
  0.6977E+00
  0.6976E+00
  0.6970E+00
  0.6948E+00
  0.6890E+00
  0.6779E+00
  0.6621E+00
  0.6440E+00
  0.6262E+00
  0.6093E+00
  0.5945E+00
  0.5821E+00
  0.5726E+00
  0.5626E+00
  0.5512E+00
  0.5322E+00
  0.4955E+00
  0.4331E+00
  0.3632E+00
  0.3038E+00
  0.2588E+00
  0.2279E+00
  0.2104E+00
  0.2029E+00
  0.2006E+00
  0.2001E+00
  0.2000E+00
  0.2000E+00
  0.2000E+00
  0.2000E+00
  0.2000E+00
  0.2000E+00
  0.2000E+00
  0.2000E+00
  0.2000E+00
  0.2000E+00
  0.2000E+00
  0.2000E+00
  0.2000E+00
  0.2000E+00
  0.2000E+00
  0.2000E+00
  0.2000E+00
  0.2000E+00
  0.2000E+00
  0.2000E+00
  0.6990E+00
  0.6990E+00
  0.6990E+00
  0.6990E+00
  0.6990E+00
  0.6990E+00
  0.6990E+00
  0.6990E+00
  0.6990E+00
  0.6990E+00
  0.6990E+00
  0.6990E+00
  0.6990E+00
  0.6990E+00
  0.6989E+00
  0.6988E+00
  0.6982E+00
  0.6960E+00
  0.6904E+00
  0.6799E+00
  0.6658E+00
  0.6506E+00
  0.6351E+00
  0.6196E+00
  0.6043E+00
  0.5870E+00
  0.5695E+00
  0.5439E+00
  0.5040E+00
  0.4460E+00
  0.3801E+00
  0.3211E+00
  0.2741E+00
  0.2394E+00
  0.2172E+00
  0.2058E+00
  0.2015E+00
  0.2003E+00
  0.2000E+00
  0.2000E+00
  0.2000E+00
  0.2000E+00
  0.2000E+00
  0.2000E+00
  0.2000E+00
  0.2000E+00
  0.2000E+00
  0.2000E+00
  0.2000E+00
  0.2000E+00
  0.2000E+00
  0.2000E+00
  0.2000E+00
  0.2000E+00
  0.2000E+00
  0.2000E+00
  0.2000E+00
  0.2000E+00
  0.2000E+00
  0.2000E+00
  0.6690E+00
  0.6690E+00
  0.6690E+00
  0.6690E+00
  0.6690E+00
  0.6690E+00
  0.6690E+00
  0.6690E+00
  0.6690E+00
  0.6690E+00
  0.6690E+00
  0.6690E+00
  0.6690E+00
  0.6690E+00
  0.6689E+00
  0.6688E+00
  0.6682E+00
  0.6661E+00
  0.6607E+00
  0.6510E+00
  0.6376E+00
  0.6214E+00
  0.6021E+00
  0.5787E+00
  0.5500E+00
  0.5141E+00
  0.4685E+00
  0.4164E+00
  0.3630E+00
  0.3145E+00
  0.2738E+00
  0.2421E+00
  0.2203E+00
  0.2079E+00
  0.2023E+00
  0.2005E+00
  0.2001E+00
  0.2000E+00
  0.2000E+00
  0.2000E+00
  0.2000E+00
  0.2000E+00
  0.2000E+00
  0.2000E+00
  0.2000E+00
  0.2000E+00
  0.2000E+00
  0.2000E+00
  0.2000E+00
  0.2000E+00
  0.2000E+00
  0.2000E+00
  0.2000E+00
  0.2000E+00
  0.2000E+00
  0.2000E+00
  0.2000E+00
  0.2000E+00
  0.2000E+00
  0.2000E+00
  0.4857E+00
  0.4857E+00
  0.4857E+00
  0.4857E+00
  0.4857E+00
  0.4857E+00
  0.4857E+00
  0.4857E+00
  0.4857E+00
  0.4857E+00
  0.4857E+00
  0.4857E+00
  0.4857E+00
  0.4857E+00
  0.4857E+00
  0.4856E+00
  0.4851E+00
  0.4836E+00
  0.4801E+00
  0.4735E+00
  0.4631E+00
  0.4479E+00
  0.4279E+00
  0.4038E+00
  0.3754E+00
  0.3441E+00
  0.3119E+00
  0.2816E+00
  0.2544E+00
  0.2323E+00
  0.2163E+00
  0.2068E+00
  0.2023E+00
  0.2006E+00
  0.2001E+00
  0.2000E+00
  0.2000E+00
  0.2000E+00
  0.2000E+00
  0.2000E+00
  0.2000E+00
  0.2000E+00
  0.2000E+00
  0.2000E+00
  0.2000E+00
  0.2000E+00
  0.2000E+00
  0.2000E+00
  0.2000E+00
  0.2000E+00
  0.2000E+00
  0.2000E+00
  0.2000E+00
  0.2000E+00
  0.2000E+00
  0.2000E+00
  0.2000E+00
  0.2000E+00
  0.2000E+00
  0.2000E+00
  0.2974E+00
  0.2974E+00
  0.2974E+00
  0.2974E+00
  0.2974E+00
  0.2974E+00
  0.2974E+00
  0.2974E+00
  0.2974E+00
  0.2974E+00
  0.2974E+00
  0.2974E+00
  0.2974E+00
  0.2974E+00
  0.2973E+00
  0.2973E+00
  0.2972E+00
  0.2966E+00
  0.2954E+00
  0.2929E+00
  0.2886E+00
  0.2821E+00
  0.2734E+00
  0.2626E+00
  0.2503E+00
  0.2374E+00
  0.2253E+00
  0.2151E+00
  0.2077E+00
  0.2033E+00
  0.2012E+00
  0.2003E+00
  0.2001E+00
  0.2000E+00
  0.2000E+00
  0.2000E+00
  0.2000E+00
  0.2000E+00
  0.2000E+00
  0.2000E+00
  0.2000E+00
  0.2000E+00
  0.2000E+00
  0.2000E+00
  0.2000E+00
  0.2000E+00
  0.2000E+00
  0.2000E+00
  0.2000E+00
  0.2000E+00
  0.2000E+00
  0.2000E+00
  0.2000E+00
  0.2000E+00
  0.2000E+00
  0.2000E+00
  0.2000E+00
  0.2000E+00
  0.2000E+00
  0.2000E+00
  0.2152E+00
  0.2152E+00
  0.2152E+00
  0.2152E+00
  0.2152E+00
  0.2152E+00
  0.2152E+00
  0.2152E+00
  0.2152E+00
  0.2152E+00
  0.2152E+00
  0.2152E+00
  0.2152E+00
  0.2152E+00
  0.2152E+00
  0.2152E+00
  0.2152E+00
  0.2150E+00
  0.2147E+00
  0.2141E+00
  0.2131E+00
  0.2115E+00
  0.2094E+00
  0.2070E+00
  0.2047E+00
  0.2028E+00
  0.2014E+00
  0.2006E+00
  0.2002E+00
  0.2001E+00
  0.2000E+00
  0.2000E+00
  0.2000E+00
  0.2000E+00
  0.2000E+00
  0.2000E+00
  0.2000E+00
  0.2000E+00
  0.2000E+00
  0.2000E+00
  0.2000E+00
  0.2000E+00
  0.2000E+00
  0.2000E+00
  0.2000E+00
  0.2000E+00
  0.2000E+00
  0.2000E+00
  0.2000E+00
  0.2000E+00
  0.2000E+00
  0.2000E+00
  0.2000E+00
  0.2000E+00
  0.2000E+00
  0.2000E+00
  0.2000E+00
  0.2000E+00
  0.2000E+00
  0.2000E+00
  0.2003E+00
  0.2003E+00
  0.2003E+00
  0.2003E+00
  0.2003E+00
  0.2003E+00
  0.2003E+00
  0.2003E+00
  0.2003E+00
  0.2003E+00
  0.2003E+00
  0.2003E+00
  0.2003E+00
  0.2003E+00
  0.2003E+00
  0.2003E+00
  0.2003E+00
  0.2003E+00
  0.2003E+00
  0.2003E+00
  0.2002E+00
  0.2002E+00
  0.2001E+00
  0.2001E+00
  0.2000E+00
  0.2000E+00
  0.2000E+00
  0.2000E+00
  0.2000E+00
  0.2000E+00
  0.2000E+00
  0.2000E+00
  0.2000E+00
  0.2000E+00
  0.2000E+00
  0.2000E+00
  0.2000E+00
  0.2000E+00
  0.2000E+00
  0.2000E+00
  0.2000E+00
  0.2000E+00
  0.2000E+00
  0.2000E+00
  0.2000E+00
  0.2000E+00
  0.2000E+00
  0.2000E+00
  0.2000E+00
  0.2000E+00
  0.2000E+00
  0.2000E+00
  0.2000E+00
  0.2000E+00
  0.2000E+00
  0.2000E+00
  0.2000E+00
  0.2000E+00
  0.2000E+00
  0.2000E+00
  0.2000E+00
  0.2000E+00
  0.2000E+00
  0.2000E+00
  0.2000E+00
  0.2000E+00
  0.2000E+00
  0.2000E+00
  0.2000E+00
  0.2000E+00
  0.2000E+00
  0.2000E+00
  0.2000E+00
  0.2000E+00
  0.2000E+00
  0.2000E+00
  0.2000E+00
  0.2000E+00
  0.2000E+00
  0.2000E+00
  0.2000E+00
  0.2000E+00
  0.2000E+00
  0.2000E+00
  0.2000E+00
  0.2000E+00
  0.2000E+00
  0.2000E+00
  0.2000E+00
  0.2000E+00
  0.2000E+00
  0.2000E+00
  0.2000E+00
  0.2000E+00
  0.2000E+00
  0.2000E+00
  0.2000E+00
  0.2000E+00
  0.2000E+00
  0.2000E+00
  0.2000E+00
  0.2000E+00
  0.2000E+00
  0.2000E+00
  0.2000E+00
  0.2000E+00
  0.2000E+00
  0.2000E+00
  0.2000E+00
  0.2000E+00
  0.2000E+00
  0.2000E+00
  0.2000E+00
  0.2000E+00
  0.2000E+00
  0.2000E+00
  0.2000E+00
  0.2000E+00
  0.2000E+00
  0.2000E+00
  0.2000E+00
  0.2000E+00
  0.2000E+00
  0.2000E+00