# vtk DataFile Version 3.0
vtk output
ASCII
DATASET RECTILINEAR_GRID
DIMENSIONS          61          61 1
X_COORDINATES    61 double
  0.0000E+00
  0.1667E+00
  0.3333E+00
  0.5000E+00
  0.6667E+00
  0.8333E+00
  0.1000E+01
  0.1167E+01
  0.1333E+01
  0.1500E+01
  0.1667E+01
  0.1833E+01
  0.2000E+01
  0.2167E+01
  0.2333E+01
  0.2500E+01
  0.2667E+01
  0.2833E+01
  0.3000E+01
  0.3167E+01
  0.3333E+01
  0.3500E+01
  0.3667E+01
  0.3833E+01
  0.4000E+01
  0.4167E+01
  0.4333E+01
  0.4500E+01
  0.4667E+01
  0.4833E+01
  0.5000E+01
  0.5167E+01
  0.5333E+01
  0.5500E+01
  0.5667E+01
  0.5833E+01
  0.6000E+01
  0.6167E+01
  0.6333E+01
  0.6500E+01
  0.6667E+01
  0.6833E+01
  0.7000E+01
  0.7167E+01
  0.7333E+01
  0.7500E+01
  0.7667E+01
  0.7833E+01
  0.8000E+01
  0.8167E+01
  0.8333E+01
  0.8500E+01
  0.8667E+01
  0.8833E+01
  0.9000E+01
  0.9167E+01
  0.9333E+01
  0.9500E+01
  0.9667E+01
  0.9833E+01
  0.1000E+02
Y_COORDINATES    61 double
  0.0000E+00
  0.1667E+00
  0.3333E+00
  0.5000E+00
  0.6667E+00
  0.8333E+00
  0.1000E+01
  0.1167E+01
  0.1333E+01
  0.1500E+01
  0.1667E+01
  0.1833E+01
  0.2000E+01
  0.2167E+01
  0.2333E+01
  0.2500E+01
  0.2667E+01
  0.2833E+01
  0.3000E+01
  0.3167E+01
  0.3333E+01
  0.3500E+01
  0.3667E+01
  0.3833E+01
  0.4000E+01
  0.4167E+01
  0.4333E+01
  0.4500E+01
  0.4667E+01
  0.4833E+01
  0.5000E+01
  0.5167E+01
  0.5333E+01
  0.5500E+01
  0.5667E+01
  0.5833E+01
  0.6000E+01
  0.6167E+01
  0.6333E+01
  0.6500E+01
  0.6667E+01
  0.6833E+01
  0.7000E+01
  0.7167E+01
  0.7333E+01
  0.7500E+01
  0.7667E+01
  0.7833E+01
  0.8000E+01
  0.8167E+01
  0.8333E+01
  0.8500E+01
  0.8667E+01
  0.8833E+01
  0.9000E+01
  0.9167E+01
  0.9333E+01
  0.9500E+01
  0.9667E+01
  0.9833E+01
  0.1000E+02
Z_COORDINATES 1 double
0
CELL_DATA                 3600
FIELD FieldData 4
density 1                 3600 double
  0.1615E+01
  0.1615E+01
  0.1614E+01
  0.1611E+01
  0.1603E+01
  0.1589E+01
  0.1563E+01
  0.1528E+01
  0.1486E+01
  0.1439E+01
  0.1392E+01
  0.1344E+01
  0.1297E+01
  0.1251E+01
  0.1207E+01
  0.1163E+01
  0.1121E+01
  0.1081E+01
  0.1042E+01
  0.1004E+01
  0.9682E+00
  0.9336E+00
  0.9003E+00
  0.8683E+00
  0.8376E+00
  0.8081E+00
  0.7798E+00
  0.7526E+00
  0.7265E+00
  0.7013E+00
  0.6772E+00
  0.6540E+00
  0.6317E+00
  0.6104E+00
  0.5899E+00
  0.5702E+00
  0.5514E+00
  0.5335E+00
  0.5165E+00
  0.5003E+00
  0.4851E+00
  0.4710E+00
  0.4581E+00
  0.4478E+00
  0.4406E+00
  0.4392E+00
  0.4402E+00
  0.4455E+00
  0.4524E+00
  0.4585E+00
  0.4641E+00
  0.4703E+00
  0.4786E+00
  0.5089E+00
  0.6421E+00
  0.1050E+01
  0.1577E+01
  0.1369E+01
  0.1243E+01
  0.1192E+01
  0.1614E+01
  0.1614E+01
  0.1613E+01
  0.1610E+01
  0.1603E+01
  0.1588E+01
  0.1563E+01
  0.1528E+01
  0.1485E+01
  0.1439E+01
  0.1391E+01
  0.1344E+01
  0.1297E+01
  0.1251E+01
  0.1206E+01
  0.1163E+01
  0.1121E+01
  0.1080E+01
  0.1041E+01
  0.1004E+01
  0.9679E+00
  0.9332E+00
  0.9000E+00
  0.8680E+00
  0.8373E+00
  0.8078E+00
  0.7795E+00
  0.7523E+00
  0.7262E+00
  0.7010E+00
  0.6769E+00
  0.6537E+00
  0.6314E+00
  0.6101E+00
  0.5896E+00
  0.5699E+00
  0.5512E+00
  0.5332E+00
  0.5162E+00
  0.5000E+00
  0.4848E+00
  0.4707E+00
  0.4578E+00
  0.4475E+00
  0.4403E+00
  0.4388E+00
  0.4398E+00
  0.4449E+00
  0.4518E+00
  0.4581E+00
  0.4639E+00
  0.4708E+00
  0.4799E+00
  0.5113E+00
  0.6462E+00
  0.1057E+01
  0.1583E+01
  0.1373E+01
  0.1242E+01
  0.1192E+01
  0.1613E+01
  0.1613E+01
  0.1612E+01
  0.1609E+01
  0.1602E+01
  0.1587E+01
  0.1562E+01
  0.1527E+01
  0.1485E+01
  0.1438E+01
  0.1391E+01
  0.1343E+01
  0.1296E+01
  0.1250E+01
  0.1205E+01
  0.1162E+01
  0.1120E+01
  0.1080E+01
  0.1041E+01
  0.1003E+01
  0.9672E+00
  0.9326E+00
  0.8993E+00
  0.8674E+00
  0.8367E+00
  0.8072E+00
  0.7789E+00
  0.7517E+00
  0.7256E+00
  0.7004E+00
  0.6763E+00
  0.6531E+00
  0.6308E+00
  0.6095E+00
  0.5890E+00
  0.5693E+00
  0.5506E+00
  0.5326E+00
  0.5156E+00
  0.4994E+00
  0.4842E+00
  0.4700E+00
  0.4572E+00
  0.4468E+00
  0.4395E+00
  0.4379E+00
  0.4388E+00
  0.4438E+00
  0.4507E+00
  0.4573E+00
  0.4638E+00
  0.4721E+00
  0.4827E+00
  0.5164E+00
  0.6556E+00
  0.1070E+01
  0.1586E+01
  0.1372E+01
  0.1242E+01
  0.1195E+01
  0.1611E+01
  0.1611E+01
  0.1610E+01
  0.1607E+01
  0.1600E+01
  0.1585E+01
  0.1561E+01
  0.1526E+01
  0.1483E+01
  0.1437E+01
  0.1389E+01
  0.1342E+01
  0.1295E+01
  0.1249E+01
  0.1204E+01
  0.1161E+01
  0.1119E+01
  0.1079E+01
  0.1040E+01
  0.1002E+01
  0.9662E+00
  0.9316E+00
  0.8983E+00
  0.8664E+00
  0.8357E+00
  0.8063E+00
  0.7780E+00
  0.7508E+00
  0.7246E+00
  0.6995E+00
  0.6754E+00
  0.6522E+00
  0.6299E+00
  0.6086E+00
  0.5881E+00
  0.5684E+00
  0.5496E+00
  0.5317E+00
  0.5147E+00
  0.4985E+00
  0.4833E+00
  0.4691E+00
  0.4562E+00
  0.4458E+00
  0.4384E+00
  0.4365E+00
  0.4373E+00
  0.4421E+00
  0.4492E+00
  0.4563E+00
  0.4639E+00
  0.4742E+00
  0.4873E+00
  0.5251E+00
  0.6700E+00
  0.1090E+01
  0.1587E+01
  0.1370E+01
  0.1240E+01
  0.1196E+01
  0.1609E+01
  0.1609E+01
  0.1608E+01
  0.1605E+01
  0.1598E+01
  0.1583E+01
  0.1559E+01
  0.1524E+01
  0.1482E+01
  0.1435E+01
  0.1388E+01
  0.1340E+01
  0.1293E+01
  0.1248E+01
  0.1203E+01
  0.1160E+01
  0.1118E+01
  0.1077E+01
  0.1038E+01
  0.1001E+01
  0.9649E+00
  0.9302E+00
  0.8970E+00
  0.8651E+00
  0.8344E+00
  0.8050E+00
  0.7767E+00
  0.7495E+00
  0.7234E+00
  0.6983E+00
  0.6741E+00
  0.6509E+00
  0.6287E+00
  0.6073E+00
  0.5868E+00
  0.5672E+00
  0.5484E+00
  0.5305E+00
  0.5134E+00
  0.4972E+00
  0.4820E+00
  0.4678E+00
  0.4549E+00
  0.4444E+00
  0.4369E+00
  0.4346E+00
  0.4353E+00
  0.4399E+00
  0.4473E+00
  0.4552E+00
  0.4646E+00
  0.4779E+00
  0.4951E+00
  0.5391E+00
  0.6925E+00
  0.1118E+01
  0.1584E+01
  0.1360E+01
  0.1231E+01
  0.1194E+01
  0.1606E+01
  0.1605E+01
  0.1604E+01
  0.1602E+01
  0.1595E+01
  0.1580E+01
  0.1556E+01
  0.1522E+01
  0.1480E+01
  0.1433E+01
  0.1386E+01
  0.1338E+01
  0.1291E+01
  0.1246E+01
  0.1201E+01
  0.1158E+01
  0.1116E+01
  0.1076E+01
  0.1037E+01
  0.9991E+00
  0.9631E+00
  0.9285E+00
  0.8953E+00
  0.8633E+00
  0.8327E+00
  0.8033E+00
  0.7750E+00
  0.7478E+00
  0.7217E+00
  0.6966E+00
  0.6725E+00
  0.6493E+00
  0.6271E+00
  0.6057E+00
  0.5852E+00
  0.5656E+00
  0.5468E+00
  0.5288E+00
  0.5118E+00
  0.4956E+00
  0.4804E+00
  0.4662E+00
  0.4532E+00
  0.4426E+00
  0.4349E+00
  0.4321E+00
  0.4327E+00
  0.4373E+00
  0.4449E+00
  0.4541E+00
  0.4663E+00
  0.4846E+00
  0.5089E+00
  0.5593E+00
  0.7223E+00
  0.1150E+01
  0.1575E+01
  0.1344E+01
  0.1218E+01
  0.1190E+01
  0.1602E+01
  0.1601E+01
  0.1601E+01
  0.1598E+01
  0.1591E+01
  0.1577E+01
  0.1553E+01
  0.1519E+01
  0.1477E+01
  0.1431E+01
  0.1383E+01
  0.1336E+01
  0.1289E+01
  0.1243E+01
  0.1199E+01
  0.1155E+01
  0.1114E+01
  0.1073E+01
  0.1034E+01
  0.9969E+00
  0.9609E+00
  0.9263E+00
  0.8931E+00
  0.8612E+00
  0.8306E+00
  0.8012E+00
  0.7729E+00
  0.7458E+00
  0.7197E+00
  0.6946E+00
  0.6705E+00
  0.6473E+00
  0.6251E+00
  0.6037E+00
  0.5832E+00
  0.5636E+00
  0.5448E+00
  0.5268E+00
  0.5097E+00
  0.4935E+00
  0.4783E+00
  0.4641E+00
  0.4511E+00
  0.4403E+00
  0.4324E+00
  0.4290E+00
  0.4296E+00
  0.4343E+00
  0.4423E+00
  0.4535E+00
  0.4705E+00
  0.4967E+00
  0.5301E+00
  0.5865E+00
  0.7578E+00
  0.1182E+01
  0.1558E+01
  0.1320E+01
  0.1203E+01
  0.1187E+01
  0.1597E+01
  0.1597E+01
  0.1596E+01
  0.1593E+01
  0.1587E+01
  0.1573E+01
  0.1549E+01
  0.1515E+01
  0.1474E+01
  0.1428E+01
  0.1380E+01
  0.1333E+01
  0.1286E+01
  0.1240E+01
  0.1196E+01
  0.1153E+01
  0.1111E+01
  0.1070E+01
  0.1032E+01
  0.9942E+00
  0.9582E+00
  0.9236E+00
  0.8905E+00
  0.8586E+00
  0.8280E+00
  0.7986E+00
  0.7704E+00
  0.7432E+00
  0.7172E+00
  0.6921E+00
  0.6680E+00
  0.6448E+00
  0.6226E+00
  0.6012E+00
  0.5807E+00
  0.5611E+00
  0.5423E+00
  0.5243E+00
  0.5072E+00
  0.4910E+00
  0.4758E+00
  0.4615E+00
  0.4485E+00
  0.4375E+00
  0.4293E+00
  0.4254E+00
  0.4261E+00
  0.4309E+00
  0.4397E+00
  0.4549E+00
  0.4808E+00
  0.5188E+00
  0.5609E+00
  0.6203E+00
  0.7955E+00
  0.1212E+01
  0.1532E+01
  0.1292E+01
  0.1187E+01
  0.1185E+01
  0.1591E+01
  0.1591E+01
  0.1590E+01
  0.1588E+01
  0.1581E+01
  0.1568E+01
  0.1545E+01
  0.1511E+01
  0.1470E+01
  0.1424E+01
  0.1377E+01
  0.1329E+01
  0.1283E+01
  0.1237E+01
  0.1192E+01
  0.1149E+01
  0.1108E+01
  0.1067E+01
  0.1028E+01
  0.9909E+00
  0.9550E+00
  0.9205E+00
  0.8873E+00
  0.8555E+00
  0.8249E+00
  0.7955E+00
  0.7673E+00
  0.7402E+00
  0.7141E+00
  0.6891E+00
  0.6650E+00
  0.6419E+00
  0.6196E+00
  0.5983E+00
  0.5778E+00
  0.5582E+00
  0.5393E+00
  0.5214E+00
  0.5043E+00
  0.4880E+00
  0.4727E+00
  0.4584E+00
  0.4453E+00
  0.4341E+00
  0.4253E+00
  0.4213E+00
  0.4222E+00
  0.4272E+00
  0.4389E+00
  0.4623E+00
  0.4990E+00
  0.5450E+00
  0.5917E+00
  0.6532E+00
  0.8323E+00
  0.1236E+01
  0.1496E+01
  0.1259E+01
  0.1173E+01
  0.1179E+01
  0.1585E+01
  0.1585E+01
  0.1584E+01
  0.1581E+01
  0.1575E+01
  0.1562E+01
  0.1539E+01
  0.1506E+01
  0.1465E+01
  0.1420E+01
  0.1373E+01
  0.1325E+01
  0.1279E+01
  0.1233E+01
  0.1188E+01
  0.1145E+01
  0.1104E+01
  0.1063E+01
  0.1024E+01
  0.9871E+00
  0.9512E+00
  0.9167E+00
  0.8836E+00
  0.8518E+00
  0.8212E+00
  0.7919E+00
  0.7637E+00
  0.7366E+00
  0.7106E+00
  0.6856E+00
  0.6615E+00
  0.6384E+00
  0.6161E+00
  0.5948E+00
  0.5743E+00
  0.5547E+00
  0.5358E+00
  0.5178E+00
  0.5007E+00
  0.4844E+00
  0.4690E+00
  0.4547E+00
  0.4414E+00
  0.4299E+00
  0.4205E+00
  0.4168E+00
  0.4179E+00
  0.4244E+00
  0.4424E+00
  0.4772E+00
  0.5251E+00
  0.5770E+00
  0.6245E+00
  0.6850E+00
  0.8646E+00
  0.1249E+01
  0.1450E+01
  0.1221E+01
  0.1159E+01
  0.1167E+01
  0.1577E+01
  0.1577E+01
  0.1576E+01
  0.1574E+01
  0.1568E+01
  0.1555E+01
  0.1533E+01
  0.1500E+01
  0.1460E+01
  0.1415E+01
  0.1368E+01
  0.1320E+01
  0.1274E+01
  0.1228E+01
  0.1184E+01
  0.1141E+01
  0.1099E+01
  0.1059E+01
  0.1020E+01
  0.9827E+00
  0.9468E+00
  0.9123E+00
  0.8793E+00
  0.8475E+00
  0.8170E+00
  0.7877E+00
  0.7595E+00
  0.7325E+00
  0.7065E+00
  0.6814E+00
  0.6574E+00
  0.6343E+00
  0.6120E+00
  0.5907E+00
  0.5702E+00
  0.5505E+00
  0.5317E+00
  0.5136E+00
  0.4964E+00
  0.4801E+00
  0.4646E+00
  0.4501E+00
  0.4365E+00
  0.4247E+00
  0.4145E+00
  0.4119E+00
  0.4135E+00
  0.4244E+00
  0.4542E+00
  0.5032E+00
  0.5607E+00
  0.6137E+00
  0.6567E+00
  0.7137E+00
  0.8909E+00
  0.1248E+01
  0.1393E+01
  0.1181E+01
  0.1141E+01
  0.1151E+01
  0.1569E+01
  0.1569E+01
  0.1568E+01
  0.1566E+01
  0.1560E+01
  0.1548E+01
  0.1526E+01
  0.1494E+01
  0.1454E+01
  0.1409E+01
  0.1362E+01
  0.1315E+01
  0.1268E+01
  0.1223E+01
  0.1178E+01
  0.1135E+01
  0.1094E+01
  0.1054E+01
  0.1015E+01
  0.9775E+00
  0.9417E+00
  0.9073E+00
  0.8743E+00
  0.8425E+00
  0.8121E+00
  0.7828E+00
  0.7547E+00
  0.7276E+00
  0.7016E+00
  0.6766E+00
  0.6526E+00
  0.6295E+00
  0.6072E+00
  0.5858E+00
  0.5653E+00
  0.5456E+00
  0.5266E+00
  0.5085E+00
  0.4912E+00
  0.4748E+00
  0.4592E+00
  0.4445E+00
  0.4305E+00
  0.4182E+00
  0.4076E+00
  0.4063E+00
  0.4115E+00
  0.4333E+00
  0.4789E+00
  0.5398E+00
  0.5995E+00
  0.6477E+00
  0.6848E+00
  0.7377E+00
  0.9087E+00
  0.1228E+01
  0.1325E+01
  0.1144E+01
  0.1123E+01
  0.1137E+01
  0.1559E+01
  0.1559E+01
  0.1558E+01
  0.1556E+01
  0.1551E+01
  0.1539E+01
  0.1518E+01
  0.1486E+01
  0.1447E+01
  0.1402E+01
  0.1355E+01
  0.1308E+01
  0.1262E+01
  0.1217E+01
  0.1172E+01
  0.1129E+01
  0.1088E+01
  0.1048E+01
  0.1009E+01
  0.9717E+00
  0.9359E+00
  0.9015E+00
  0.8685E+00
  0.8368E+00
  0.8064E+00
  0.7771E+00
  0.7490E+00
  0.7220E+00
  0.6960E+00
  0.6710E+00
  0.6469E+00
  0.6237E+00
  0.6015E+00
  0.5800E+00
  0.5594E+00
  0.5396E+00
  0.5205E+00
  0.5023E+00
  0.4848E+00
  0.4682E+00
  0.4524E+00
  0.4374E+00
  0.4231E+00
  0.4093E+00
  0.4010E+00
  0.4025E+00
  0.4162E+00
  0.4555E+00
  0.5158E+00
  0.5811E+00
  0.6350E+00
  0.6752E+00
  0.7061E+00
  0.7537E+00
  0.9133E+00
  0.1185E+01
  0.1250E+01
  0.1111E+01
  0.1104E+01
  0.1124E+01
  0.1548E+01
  0.1548E+01
  0.1547E+01
  0.1545E+01
  0.1540E+01
  0.1529E+01
  0.1509E+01
  0.1478E+01
  0.1439E+01
  0.1394E+01
  0.1348E+01
  0.1301E+01
  0.1255E+01
  0.1209E+01
  0.1165E+01
  0.1122E+01
  0.1081E+01
  0.1041E+01
  0.1002E+01
  0.9649E+00
  0.9292E+00
  0.8948E+00
  0.8619E+00
  0.8302E+00
  0.7997E+00
  0.7705E+00
  0.7424E+00
  0.7153E+00
  0.6893E+00
  0.6643E+00
  0.6401E+00
  0.6169E+00
  0.5945E+00
  0.5730E+00
  0.5522E+00
  0.5323E+00
  0.5131E+00
  0.4947E+00
  0.4770E+00
  0.4602E+00
  0.4441E+00
  0.4286E+00
  0.4136E+00
  0.3987E+00
  0.3967E+00
  0.4041E+00
  0.4356E+00
  0.4920E+00
  0.5603E+00
  0.6205E+00
  0.6634E+00
  0.6961E+00
  0.7204E+00
  0.7609E+00
  0.9051E+00
  0.1117E+01
  0.1172E+01
  0.1085E+01
  0.1084E+01
  0.1110E+01
  0.1536E+01
  0.1536E+01
  0.1535E+01
  0.1533E+01
  0.1528E+01
  0.1518E+01
  0.1498E+01
  0.1468E+01
  0.1430E+01
  0.1386E+01
  0.1340E+01
  0.1293E+01
  0.1247E+01
  0.1201E+01
  0.1157E+01
  0.1114E+01
  0.1073E+01
  0.1033E+01
  0.9942E+00
  0.9571E+00
  0.9213E+00
  0.8870E+00
  0.8541E+00
  0.8224E+00
  0.7919E+00
  0.7626E+00
  0.7345E+00
  0.7074E+00
  0.6813E+00
  0.6562E+00
  0.6319E+00
  0.6086E+00
  0.5861E+00
  0.5644E+00
  0.5435E+00
  0.5233E+00
  0.5039E+00
  0.4853E+00
  0.4674E+00
  0.4504E+00
  0.4338E+00
  0.4179E+00
  0.4003E+00
  0.3925E+00
  0.3966E+00
  0.4203E+00
  0.4708E+00
  0.5389E+00
  0.6040E+00
  0.6514E+00
  0.6846E+00
  0.7117E+00
  0.7292E+00
  0.7600E+00
  0.8744E+00
  0.1027E+01
  0.1097E+01
  0.1067E+01
  0.1066E+01
  0.1097E+01
  0.1522E+01
  0.1522E+01
  0.1521E+01
  0.1519E+01
  0.1515E+01
  0.1505E+01
  0.1486E+01
  0.1457E+01
  0.1419E+01
  0.1376E+01
  0.1330E+01
  0.1283E+01
  0.1237E+01
  0.1192E+01
  0.1148E+01
  0.1105E+01
  0.1064E+01
  0.1024E+01
  0.9850E+00
  0.9478E+00
  0.9121E+00
  0.8778E+00
  0.8448E+00
  0.8131E+00
  0.7826E+00
  0.7532E+00
  0.7250E+00
  0.6978E+00
  0.6716E+00
  0.6464E+00
  0.6220E+00
  0.5985E+00
  0.5758E+00
  0.5540E+00
  0.5329E+00
  0.5125E+00
  0.4929E+00
  0.4741E+00
  0.4561E+00
  0.4385E+00
  0.4217E+00
  0.4032E+00
  0.3903E+00
  0.3921E+00
  0.4095E+00
  0.4532E+00
  0.5184E+00
  0.5866E+00
  0.6386E+00
  0.6735E+00
  0.6997E+00
  0.7218E+00
  0.7312E+00
  0.7467E+00
  0.8184E+00
  0.9226E+00
  0.1027E+01
  0.1058E+01
  0.1051E+01
  0.1086E+01
  0.1506E+01
  0.1505E+01
  0.1505E+01
  0.1503E+01
  0.1499E+01
  0.1490E+01
  0.1472E+01
  0.1444E+01
  0.1407E+01
  0.1364E+01
  0.1318E+01
  0.1272E+01
  0.1226E+01
  0.1181E+01
  0.1137E+01
  0.1094E+01
  0.1053E+01
  0.1013E+01
  0.9740E+00
  0.9369E+00
  0.9012E+00
  0.8668E+00
  0.8337E+00
  0.8020E+00
  0.7714E+00
  0.7420E+00
  0.7136E+00
  0.6863E+00
  0.6600E+00
  0.6346E+00
  0.6101E+00
  0.5864E+00
  0.5636E+00
  0.5415E+00
  0.5203E+00
  0.4997E+00
  0.4799E+00
  0.4610E+00
  0.4425E+00
  0.4249E+00
  0.4061E+00
  0.3899E+00
  0.3897E+00
  0.4029E+00
  0.4407E+00
  0.5009E+00
  0.5690E+00
  0.6247E+00
  0.6620E+00
  0.6887E+00
  0.7105E+00
  0.7246E+00
  0.7249E+00
  0.7125E+00
  0.7388E+00
  0.8179E+00
  0.9684E+00
  0.1056E+01
  0.1039E+01
  0.1080E+01
  0.1487E+01
  0.1487E+01
  0.1486E+01
  0.1485E+01
  0.1481E+01
  0.1472E+01
  0.1455E+01
  0.1428E+01
  0.1392E+01
  0.1350E+01
  0.1305E+01
  0.1258E+01
  0.1213E+01
  0.1167E+01
  0.1124E+01
  0.1081E+01
  0.1040E+01
  0.9996E+00
  0.9610E+00
  0.9238E+00
  0.8881E+00
  0.8536E+00
  0.8205E+00
  0.7887E+00
  0.7580E+00
  0.7285E+00
  0.7001E+00
  0.6726E+00
  0.6462E+00
  0.6206E+00
  0.5960E+00
  0.5722E+00
  0.5492E+00
  0.5271E+00
  0.5057E+00
  0.4850E+00
  0.4652E+00
  0.4460E+00
  0.4275E+00
  0.4081E+00
  0.3904E+00
  0.3888E+00
  0.3987E+00
  0.4319E+00
  0.4882E+00
  0.5559E+00
  0.6140E+00
  0.6523E+00
  0.6790E+00
  0.7008E+00
  0.7163E+00
  0.7186E+00
  0.7028E+00
  0.6421E+00
  0.6496E+00
  0.7295E+00
  0.9193E+00
  0.1055E+01
  0.1033E+01
  0.1074E+01
  0.1465E+01
  0.1465E+01
  0.1464E+01
  0.1463E+01
  0.1460E+01
  0.1452E+01
  0.1436E+01
  0.1410E+01
  0.1375E+01
  0.1333E+01
  0.1288E+01
  0.1242E+01
  0.1197E+01
  0.1152E+01
  0.1108E+01
  0.1065E+01
  0.1024E+01
  0.9841E+00
  0.9455E+00
  0.9084E+00
  0.8726E+00
  0.8381E+00
  0.8050E+00
  0.7730E+00
  0.7423E+00
  0.7127E+00
  0.6842E+00
  0.6567E+00
  0.6302E+00
  0.6046E+00
  0.5798E+00
  0.5560E+00
  0.5330E+00
  0.5108E+00
  0.4894E+00
  0.4688E+00
  0.4488E+00
  0.4296E+00
  0.4098E+00
  0.3909E+00
  0.3886E+00
  0.3967E+00
  0.4254E+00
  0.4747E+00
  0.5402E+00
  0.6026E+00
  0.6456E+00
  0.6735E+00
  0.6947E+00
  0.7091E+00
  0.7115E+00
  0.6973E+00
  0.6376E+00
  0.5593E+00
  0.5684E+00
  0.6629E+00
  0.8703E+00
  0.1047E+01
  0.1033E+01
  0.1057E+01
  0.1439E+01
  0.1439E+01
  0.1439E+01
  0.1438E+01
  0.1435E+01
  0.1427E+01
  0.1413E+01
  0.1388E+01
  0.1354E+01
  0.1313E+01
  0.1269E+01
  0.1223E+01
  0.1178E+01
  0.1133E+01
  0.1090E+01
  0.1047E+01
  0.1006E+01
  0.9659E+00
  0.9274E+00
  0.8903E+00
  0.8545E+00
  0.8201E+00
  0.7869E+00
  0.7550E+00
  0.7243E+00
  0.6947E+00
  0.6662E+00
  0.6387E+00
  0.6122E+00
  0.5866E+00
  0.5619E+00
  0.5381E+00
  0.5152E+00
  0.4931E+00
  0.4719E+00
  0.4513E+00
  0.4314E+00
  0.4111E+00
  0.3921E+00
  0.3891E+00
  0.3954E+00
  0.4234E+00
  0.4711E+00
  0.5307E+00
  0.5883E+00
  0.6317E+00
  0.6623E+00
  0.6871E+00
  0.7032E+00
  0.7046E+00
  0.6888E+00
  0.6287E+00
  0.5542E+00
  0.4970E+00
  0.5129E+00
  0.6136E+00
  0.8176E+00
  0.1024E+01
  0.1039E+01
  0.1032E+01
  0.1410E+01
  0.1410E+01
  0.1409E+01
  0.1408E+01
  0.1406E+01
  0.1399E+01
  0.1385E+01
  0.1362E+01
  0.1330E+01
  0.1290E+01
  0.1246E+01
  0.1201E+01
  0.1156E+01
  0.1112E+01
  0.1068E+01
  0.1026E+01
  0.9848E+00
  0.9451E+00
  0.9067E+00
  0.8697E+00
  0.8340E+00
  0.7997E+00
  0.7666E+00
  0.7348E+00
  0.7042E+00
  0.6747E+00
  0.6463E+00
  0.6189E+00
  0.5926E+00
  0.5672E+00
  0.5427E+00
  0.5192E+00
  0.4965E+00
  0.4747E+00
  0.4535E+00
  0.4332E+00
  0.4123E+00
  0.3928E+00
  0.3898E+00
  0.3961E+00
  0.4201E+00
  0.4649E+00
  0.5285E+00
  0.5904E+00
  0.6312E+00
  0.6568E+00
  0.6792E+00
  0.6943E+00
  0.6965E+00
  0.6784E+00
  0.6162E+00
  0.5441E+00
  0.4902E+00
  0.4705E+00
  0.4877E+00
  0.5749E+00
  0.7618E+00
  0.9783E+00
  0.1044E+01
  0.1010E+01
  0.1376E+01
  0.1376E+01
  0.1376E+01
  0.1375E+01
  0.1373E+01
  0.1367E+01
  0.1354E+01
  0.1333E+01
  0.1302E+01
  0.1263E+01
  0.1220E+01
  0.1176E+01
  0.1131E+01
  0.1087E+01
  0.1044E+01
  0.1002E+01
  0.9613E+00
  0.9218E+00
  0.8837E+00
  0.8469E+00
  0.8115E+00
  0.7774E+00
  0.7445E+00
  0.7130E+00
  0.6826E+00
  0.6533E+00
  0.6252E+00
  0.5982E+00
  0.5721E+00
  0.5470E+00
  0.5229E+00
  0.4997E+00
  0.4774E+00
  0.4558E+00
  0.4350E+00
  0.4136E+00
  0.3933E+00
  0.3901E+00
  0.3963E+00
  0.4207E+00
  0.4613E+00
  0.5181E+00
  0.5814E+00
  0.6319E+00
  0.6621E+00
  0.6834E+00
  0.6938E+00
  0.6923E+00
  0.6687E+00
  0.6042E+00
  0.5338E+00
  0.4854E+00
  0.4693E+00
  0.4693E+00
  0.4824E+00
  0.5463E+00
  0.7023E+00
  0.9062E+00
  0.1034E+01
  0.1008E+01
  0.1340E+01
  0.1339E+01
  0.1339E+01
  0.1339E+01
  0.1337E+01
  0.1331E+01
  0.1320E+01
  0.1300E+01
  0.1271E+01
  0.1233E+01
  0.1192E+01
  0.1148E+01
  0.1104E+01
  0.1060E+01
  0.1018E+01
  0.9762E+00
  0.9358E+00
  0.8968E+00
  0.8590E+00
  0.8226E+00
  0.7875E+00
  0.7538E+00
  0.7213E+00
  0.6902E+00
  0.6602E+00
  0.6313E+00
  0.6036E+00
  0.5770E+00
  0.5514E+00
  0.5267E+00
  0.5031E+00
  0.4803E+00
  0.4583E+00
  0.4370E+00
  0.4151E+00
  0.3948E+00
  0.3906E+00
  0.3965E+00
  0.4205E+00
  0.4613E+00
  0.5161E+00
  0.5742E+00
  0.6217E+00
  0.6547E+00
  0.6797E+00
  0.6952E+00
  0.6929E+00
  0.6666E+00
  0.5974E+00
  0.5271E+00
  0.4833E+00
  0.4718E+00
  0.4707E+00
  0.4742E+00
  0.4873E+00
  0.5282E+00
  0.6416E+00
  0.8167E+00
  0.9855E+00
  0.1031E+01
  0.1301E+01
  0.1301E+01
  0.1300E+01
  0.1300E+01
  0.1298E+01
  0.1294E+01
  0.1284E+01
  0.1265E+01
  0.1238E+01
  0.1202E+01
  0.1161E+01
  0.1118E+01
  0.1075E+01
  0.1032E+01
  0.9902E+00
  0.9492E+00
  0.9094E+00
  0.8708E+00
  0.8336E+00
  0.7977E+00
  0.7631E+00
  0.7299E+00
  0.6980E+00
  0.6673E+00
  0.6378E+00
  0.6095E+00
  0.5823E+00
  0.5562E+00
  0.5311E+00
  0.5069E+00
  0.4837E+00
  0.4612E+00
  0.4395E+00
  0.4168E+00
  0.3971E+00
  0.3925E+00
  0.3985E+00
  0.4240E+00
  0.4652E+00
  0.5181E+00
  0.5740E+00
  0.6177E+00
  0.6484E+00
  0.6737E+00
  0.6898E+00
  0.6905E+00
  0.6661E+00
  0.5956E+00
  0.5258E+00
  0.4849E+00
  0.4757E+00
  0.4744E+00
  0.4784E+00
  0.4870E+00
  0.4964E+00
  0.5174E+00
  0.5855E+00
  0.7241E+00
  0.8937E+00
  0.1074E+01
  0.1261E+01
  0.1261E+01
  0.1261E+01
  0.1261E+01
  0.1259E+01
  0.1255E+01
  0.1246E+01
  0.1230E+01
  0.1204E+01
  0.1170E+01
  0.1130E+01
  0.1089E+01
  0.1046E+01
  0.1004E+01
  0.9625E+00
  0.9222E+00
  0.8831E+00
  0.8452E+00
  0.8086E+00
  0.7733E+00
  0.7394E+00
  0.7067E+00
  0.6754E+00
  0.6453E+00
  0.6164E+00
  0.5887E+00
  0.5620E+00
  0.5364E+00
  0.5117E+00
  0.4879E+00
  0.4650E+00
  0.4426E+00
  0.4194E+00
  0.4010E+00
  0.3959E+00
  0.4022E+00
  0.4267E+00
  0.4715E+00
  0.5286E+00
  0.5814E+00
  0.6213E+00
  0.6483E+00
  0.6719E+00
  0.6868E+00
  0.6871E+00
  0.6656E+00
  0.5970E+00
  0.5275E+00
  0.4888E+00
  0.4805E+00
  0.4795E+00
  0.4832E+00
  0.4905E+00
  0.4975E+00
  0.5026E+00
  0.5110E+00
  0.5450E+00
  0.6393E+00
  0.7730E+00
  0.1077E+01
  0.1224E+01
  0.1224E+01
  0.1224E+01
  0.1224E+01
  0.1222E+01
  0.1219E+01
  0.1211E+01
  0.1196E+01
  0.1172E+01
  0.1140E+01
  0.1102E+01
  0.1061E+01
  0.1019E+01
  0.9781E+00
  0.9374E+00
  0.8978E+00
  0.8593E+00
  0.8220E+00
  0.7860E+00
  0.7513E+00
  0.7179E+00
  0.6859E+00
  0.6551E+00
  0.6255E+00
  0.5971E+00
  0.5698E+00
  0.5435E+00
  0.5182E+00
  0.4940E+00
  0.4705E+00
  0.4471E+00
  0.4238E+00
  0.4079E+00
  0.4017E+00
  0.4085E+00
  0.4345E+00
  0.4756E+00
  0.5310E+00
  0.5904E+00
  0.6320E+00
  0.6544E+00
  0.6736E+00
  0.6865E+00
  0.6858E+00
  0.6654E+00
  0.5995E+00
  0.5316E+00
  0.4936E+00
  0.4855E+00
  0.4849E+00
  0.4882E+00
  0.4942E+00
  0.4997E+00
  0.5032E+00
  0.5050E+00
  0.5087E+00
  0.5251E+00
  0.5758E+00
  0.6643E+00
  0.9839E+00
  0.1194E+01
  0.1194E+01
  0.1194E+01
  0.1194E+01
  0.1193E+01
  0.1190E+01
  0.1183E+01
  0.1169E+01
  0.1146E+01
  0.1115E+01
  0.1078E+01
  0.1039E+01
  0.9980E+00
  0.9574E+00
  0.9176E+00
  0.8786E+00
  0.8407E+00
  0.8040E+00
  0.7686E+00
  0.7344E+00
  0.7015E+00
  0.6698E+00
  0.6393E+00
  0.6100E+00
  0.5818E+00
  0.5546E+00
  0.5285E+00
  0.5034E+00
  0.4788E+00
  0.4544E+00
  0.4337E+00
  0.4190E+00
  0.4112E+00
  0.4183E+00
  0.4454E+00
  0.4900E+00
  0.5406E+00
  0.5884E+00
  0.6314E+00
  0.6620E+00
  0.6799E+00
  0.6894E+00
  0.6868E+00
  0.6651E+00
  0.6007E+00
  0.5337E+00
  0.4976E+00
  0.4903E+00
  0.4894E+00
  0.4924E+00
  0.4976E+00
  0.5021E+00
  0.5046E+00
  0.5053E+00
  0.5068E+00
  0.5108E+00
  0.5169E+00
  0.5218E+00
  0.5326E+00
  0.7081E+00
  0.1177E+01
  0.1177E+01
  0.1177E+01
  0.1177E+01
  0.1176E+01
  0.1173E+01
  0.1167E+01
  0.1155E+01
  0.1135E+01
  0.1106E+01
  0.1070E+01
  0.1031E+01
  0.9906E+00
  0.9499E+00
  0.9099E+00
  0.8707E+00
  0.8325E+00
  0.7954E+00
  0.7596E+00
  0.7250E+00
  0.6917E+00
  0.6596E+00
  0.6288E+00
  0.5992E+00
  0.5708E+00
  0.5435E+00
  0.5174E+00
  0.4927E+00
  0.4697E+00
  0.4500E+00
  0.4332E+00
  0.4250E+00
  0.4331E+00
  0.4607E+00
  0.5045E+00
  0.5575E+00
  0.6029E+00
  0.6315E+00
  0.6570E+00
  0.6836E+00
  0.6952E+00
  0.6905E+00
  0.6651E+00
  0.5995E+00
  0.5337E+00
  0.4989E+00
  0.4936E+00
  0.4931E+00
  0.4956E+00
  0.5001E+00
  0.5040E+00
  0.5060E+00
  0.5060E+00
  0.5066E+00
  0.5102E+00
  0.5125E+00
  0.5026E+00
  0.4559E+00
  0.3879E+00
  0.4374E+00
  0.1174E+01
  0.1174E+01
  0.1174E+01
  0.1174E+01
  0.1173E+01
  0.1171E+01
  0.1166E+01
  0.1155E+01
  0.1135E+01
  0.1107E+01
  0.1072E+01
  0.1032E+01
  0.9916E+00
  0.9509E+00
  0.9107E+00
  0.8714E+00
  0.8331E+00
  0.7958E+00
  0.7597E+00
  0.7247E+00
  0.6909E+00
  0.6584E+00
  0.6273E+00
  0.5973E+00
  0.5686E+00
  0.5413E+00
  0.5155E+00
  0.4913E+00
  0.4697E+00
  0.4522E+00
  0.4447E+00
  0.4535E+00
  0.4820E+00
  0.5243E+00
  0.5718E+00
  0.6153E+00
  0.6460E+00
  0.6620E+00
  0.6790E+00
  0.6946E+00
  0.6931E+00
  0.6660E+00
  0.5973E+00
  0.5314E+00
  0.4977E+00
  0.4935E+00
  0.4944E+00
  0.4977E+00
  0.5020E+00
  0.5054E+00
  0.5067E+00
  0.5066E+00
  0.5069E+00
  0.5095E+00
  0.5120E+00
  0.5041E+00
  0.4588E+00
  0.3859E+00
  0.3094E+00
  0.3007E+00
  0.1174E+01
  0.1174E+01
  0.1174E+01
  0.1174E+01
  0.1174E+01
  0.1172E+01
  0.1167E+01
  0.1157E+01
  0.1139E+01
  0.1112E+01
  0.1077E+01
  0.1038E+01
  0.9976E+00
  0.9567E+00
  0.9163E+00
  0.8766E+00
  0.8378E+00
  0.8001E+00
  0.7634E+00
  0.7279E+00
  0.6936E+00
  0.6604E+00
  0.6286E+00
  0.5982E+00
  0.5694E+00
  0.5421E+00
  0.5166E+00
  0.4939E+00
  0.4760E+00
  0.4703E+00
  0.4803E+00
  0.5084E+00
  0.5488E+00
  0.5914E+00
  0.6267E+00
  0.6533E+00
  0.6738E+00
  0.6871E+00
  0.6939E+00
  0.6926E+00
  0.6673E+00
  0.5960E+00
  0.5277E+00
  0.4939E+00
  0.4903E+00
  0.4931E+00
  0.4978E+00
  0.5028E+00
  0.5062E+00
  0.5072E+00
  0.5070E+00
  0.5071E+00
  0.5093E+00
  0.5113E+00
  0.5037E+00
  0.4604E+00
  0.3897E+00
  0.3220E+00
  0.2659E+00
  0.2418E+00
  0.1177E+01
  0.1177E+01
  0.1177E+01
  0.1177E+01
  0.1176E+01
  0.1175E+01
  0.1171E+01
  0.1161E+01
  0.1144E+01
  0.1118E+01
  0.1085E+01
  0.1047E+01
  0.1006E+01
  0.9652E+00
  0.9243E+00
  0.8841E+00
  0.8446E+00
  0.8060E+00
  0.7686E+00
  0.7324E+00
  0.6976E+00
  0.6642E+00
  0.6322E+00
  0.6018E+00
  0.5731E+00
  0.5463E+00
  0.5230E+00
  0.5062E+00
  0.5030E+00
  0.5128E+00
  0.5393E+00
  0.5752E+00
  0.6126E+00
  0.6427E+00
  0.6633E+00
  0.6794E+00
  0.6952E+00
  0.7032E+00
  0.6963E+00
  0.6684E+00
  0.5979E+00
  0.5257E+00
  0.4893E+00
  0.4857E+00
  0.4896E+00
  0.4958E+00
  0.5021E+00
  0.5063E+00
  0.5074E+00
  0.5072E+00
  0.5072E+00
  0.5090E+00
  0.5107E+00
  0.5031E+00
  0.4602E+00
  0.3898E+00
  0.3230E+00
  0.2707E+00
  0.2335E+00
  0.2147E+00
  0.1181E+01
  0.1181E+01
  0.1181E+01
  0.1181E+01
  0.1180E+01
  0.1179E+01
  0.1175E+01
  0.1167E+01
  0.1151E+01
  0.1126E+01
  0.1094E+01
  0.1056E+01
  0.1015E+01
  0.9737E+00
  0.9321E+00
  0.8910E+00
  0.8507E+00
  0.8115E+00
  0.7735E+00
  0.7369E+00
  0.7018E+00
  0.6684E+00
  0.6369E+00
  0.6073E+00
  0.5803E+00
  0.5575E+00
  0.5416E+00
  0.5395E+00
  0.5490E+00
  0.5724E+00
  0.6032E+00
  0.6339E+00
  0.6588E+00
  0.6769E+00
  0.6895E+00
  0.7012E+00
  0.7092E+00
  0.7047E+00
  0.6788E+00
  0.6048E+00
  0.5276E+00
  0.4855E+00
  0.4805E+00
  0.4849E+00
  0.4927E+00
  0.5004E+00
  0.5056E+00
  0.5073E+00
  0.5072E+00
  0.5072E+00
  0.5087E+00
  0.5102E+00
  0.5026E+00
  0.4600E+00
  0.3900E+00
  0.3233E+00
  0.2712E+00
  0.2348E+00
  0.2130E+00
  0.2038E+00
  0.1185E+01
  0.1185E+01
  0.1185E+01
  0.1185E+01
  0.1185E+01
  0.1184E+01
  0.1180E+01
  0.1173E+01
  0.1158E+01
  0.1135E+01
  0.1103E+01
  0.1065E+01
  0.1024E+01
  0.9813E+00
  0.9390E+00
  0.8973E+00
  0.8564E+00
  0.8167E+00
  0.7784E+00
  0.7416E+00
  0.7068E+00
  0.6741E+00
  0.6438E+00
  0.6166E+00
  0.5942E+00
  0.5794E+00
  0.5777E+00
  0.5863E+00
  0.6061E+00
  0.6314E+00
  0.6564E+00
  0.6759E+00
  0.6906E+00
  0.7021E+00
  0.7112E+00
  0.7165E+00
  0.7113E+00
  0.6884E+00
  0.6172E+00
  0.5346E+00
  0.4837E+00
  0.4754E+00
  0.4795E+00
  0.4884E+00
  0.4978E+00
  0.5044E+00
  0.5070E+00
  0.5071E+00
  0.5072E+00
  0.5087E+00
  0.5100E+00
  0.5021E+00
  0.4596E+00
  0.3900E+00
  0.3235E+00
  0.2715E+00
  0.2351E+00
  0.2134E+00
  0.2035E+00
  0.2007E+00
  0.1189E+01
  0.1189E+01
  0.1189E+01
  0.1189E+01
  0.1189E+01
  0.1188E+01
  0.1185E+01
  0.1178E+01
  0.1165E+01
  0.1142E+01
  0.1111E+01
  0.1073E+01
  0.1032E+01
  0.9888E+00
  0.9459E+00
  0.9035E+00
  0.8620E+00
  0.8219E+00
  0.7836E+00
  0.7474E+00
  0.7138E+00
  0.6828E+00
  0.6554E+00
  0.6331E+00
  0.6185E+00
  0.6162E+00
  0.6235E+00
  0.6398E+00
  0.6600E+00
  0.6793E+00
  0.6948E+00
  0.7064E+00
  0.7158E+00
  0.7228E+00
  0.7250E+00
  0.7186E+00
  0.6969E+00
  0.6294E+00
  0.5446E+00
  0.4857E+00
  0.4718E+00
  0.4745E+00
  0.4832E+00
  0.4940E+00
  0.5022E+00
  0.5062E+00
  0.5068E+00
  0.5071E+00
  0.5088E+00
  0.5101E+00
  0.5022E+00
  0.4594E+00
  0.3898E+00
  0.3234E+00
  0.2715E+00
  0.2353E+00
  0.2135E+00
  0.2037E+00
  0.2007E+00
  0.2001E+00
  0.1195E+01
  0.1195E+01
  0.1195E+01
  0.1195E+01
  0.1194E+01
  0.1194E+01
  0.1191E+01
  0.1185E+01
  0.1173E+01
  0.1151E+01
  0.1120E+01
  0.1082E+01
  0.1041E+01
  0.9969E+00
  0.9531E+00
  0.9100E+00
  0.8682E+00
  0.8283E+00
  0.7908E+00
  0.7562E+00
  0.7246E+00
  0.6971E+00
  0.6748E+00
  0.6599E+00
  0.6563E+00
  0.6616E+00
  0.6740E+00
  0.6894E+00
  0.7037E+00
  0.7155E+00
  0.7249E+00
  0.7319E+00
  0.7355E+00
  0.7331E+00
  0.7252E+00
  0.7028E+00
  0.6386E+00
  0.5551E+00
  0.4910E+00
  0.4694E+00
  0.4709E+00
  0.4783E+00
  0.4901E+00
  0.4995E+00
  0.5046E+00
  0.5061E+00
  0.5069E+00
  0.5090E+00
  0.5104E+00
  0.5026E+00
  0.4598E+00
  0.3900E+00
  0.3234E+00
  0.2716E+00
  0.2353E+00
  0.2136E+00
  0.2037E+00
  0.2007E+00
  0.2001E+00
  0.2000E+00
  0.1205E+01
  0.1205E+01
  0.1205E+01
  0.1205E+01
  0.1204E+01
  0.1204E+01
  0.1201E+01
  0.1196E+01
  0.1184E+01
  0.1163E+01
  0.1133E+01
  0.1094E+01
  0.1051E+01
  0.1007E+01
  0.9620E+00
  0.9185E+00
  0.8768E+00
  0.8379E+00
  0.8021E+00
  0.7698E+00
  0.7417E+00
  0.7192E+00
  0.7040E+00
  0.6980E+00
  0.7011E+00
  0.7096E+00
  0.7202E+00
  0.7305E+00
  0.7390E+00
  0.7449E+00
  0.7481E+00
  0.7457E+00
  0.7390E+00
  0.7290E+00
  0.7022E+00
  0.6404E+00
  0.5619E+00
  0.4968E+00
  0.4688E+00
  0.4686E+00
  0.4744E+00
  0.4869E+00
  0.4974E+00
  0.5030E+00
  0.5051E+00
  0.5064E+00
  0.5093E+00
  0.5110E+00
  0.5031E+00
  0.4602E+00
  0.3902E+00
  0.3235E+00
  0.2716E+00
  0.2353E+00
  0.2136E+00
  0.2037E+00
  0.2007E+00
  0.2001E+00
  0.2000E+00
  0.2000E+00
  0.1216E+01
  0.1216E+01
  0.1216E+01
  0.1216E+01