# vtk DataFile Version 3.0
vtk output
ASCII
DATASET RECTILINEAR_GRID
DIMENSIONS          61          61 1
X_COORDINATES    61 double
  0.0000E+00
  0.1667E+00
  0.3333E+00
  0.5000E+00
  0.6667E+00
  0.8333E+00
  0.1000E+01
  0.1167E+01
  0.1333E+01
  0.1500E+01
  0.1667E+01
  0.1833E+01
  0.2000E+01
  0.2167E+01
  0.2333E+01
  0.2500E+01
  0.2667E+01
  0.2833E+01
  0.3000E+01
  0.3167E+01
  0.3333E+01
  0.3500E+01
  0.3667E+01
  0.3833E+01
  0.4000E+01
  0.4167E+01
  0.4333E+01
  0.4500E+01
  0.4667E+01
  0.4833E+01
  0.5000E+01
  0.5167E+01
  0.5333E+01
  0.5500E+01
  0.5667E+01
  0.5833E+01
  0.6000E+01
  0.6167E+01
  0.6333E+01
  0.6500E+01
  0.6667E+01
  0.6833E+01
  0.7000E+01
  0.7167E+01
  0.7333E+01
  0.7500E+01
  0.7667E+01
  0.7833E+01
  0.8000E+01
  0.8167E+01
  0.8333E+01
  0.8500E+01
  0.8667E+01
  0.8833E+01
  0.9000E+01
  0.9167E+01
  0.9333E+01
  0.9500E+01
  0.9667E+01
  0.9833E+01
  0.1000E+02
Y_COORDINATES    61 double
  0.0000E+00
  0.1667E+00
  0.3333E+00
  0.5000E+00
  0.6667E+00
  0.8333E+00
  0.1000E+01
  0.1167E+01
  0.1333E+01
  0.1500E+01
  0.1667E+01
  0.1833E+01
  0.2000E+01
  0.2167E+01
  0.2333E+01
  0.2500E+01
  0.2667E+01
  0.2833E+01
  0.3000E+01
  0.3167E+01
  0.3333E+01
  0.3500E+01
  0.3667E+01
  0.3833E+01
  0.4000E+01
  0.4167E+01
  0.4333E+01
  0.4500E+01
  0.4667E+01
  0.4833E+01
  0.5000E+01
  0.5167E+01
  0.5333E+01
  0.5500E+01
  0.5667E+01
  0.5833E+01
  0.6000E+01
  0.6167E+01
  0.6333E+01
  0.6500E+01
  0.6667E+01
  0.6833E+01
  0.7000E+01
  0.7167E+01
  0.7333E+01
  0.7500E+01
  0.7667E+01
  0.7833E+01
  0.8000E+01
  0.8167E+01
  0.8333E+01
  0.8500E+01
  0.8667E+01
  0.8833E+01
  0.9000E+01
  0.9167E+01
  0.9333E+01
  0.9500E+01
  0.9667E+01
  0.9833E+01
  0.1000E+02
Z_COORDINATES 1 double
0
CELL_DATA                 3600
FIELD FieldData 4
density 1                 3600 double
  0.2894E+01
  0.2894E+01
  0.2894E+01
  0.2894E+01
  0.2894E+01
  0.2894E+01
  0.2894E+01
  0.2894E+01
  0.2894E+01
  0.2893E+01
  0.2889E+01
  0.2877E+01
  0.2847E+01
  0.2790E+01
  0.2706E+01
  0.2601E+01
  0.2488E+01
  0.2374E+01
  0.2261E+01
  0.2152E+01
  0.2047E+01
  0.1948E+01
  0.1854E+01
  0.1765E+01
  0.1681E+01
  0.1602E+01
  0.1527E+01
  0.1457E+01
  0.1390E+01
  0.1327E+01
  0.1267E+01
  0.1211E+01
  0.1157E+01
  0.1107E+01
  0.1060E+01
  0.1015E+01
  0.9742E+00
  0.9362E+00
  0.9026E+00
  0.8740E+00
  0.8619E+00
  0.8645E+00
  0.8821E+00
  0.9073E+00
  0.9311E+00
  0.9462E+00
  0.9474E+00
  0.9384E+00
  0.8957E+00
  0.8162E+00
  0.7222E+00
  0.6392E+00
  0.5876E+00
  0.5803E+00
  0.5840E+00
  0.5978E+00
  0.6172E+00
  0.6205E+00
  0.5516E+00
  0.3849E+00
  0.2886E+01
  0.2886E+01
  0.2886E+01
  0.2886E+01
  0.2886E+01
  0.2886E+01
  0.2886E+01
  0.2886E+01
  0.2886E+01
  0.2885E+01
  0.2881E+01
  0.2869E+01
  0.2839E+01
  0.2783E+01
  0.2699E+01
  0.2595E+01
  0.2482E+01
  0.2367E+01
  0.2255E+01
  0.2146E+01
  0.2041E+01
  0.1942E+01
  0.1848E+01
  0.1759E+01
  0.1675E+01
  0.1596E+01
  0.1521E+01
  0.1451E+01
  0.1384E+01
  0.1321E+01
  0.1260E+01
  0.1204E+01
  0.1150E+01
  0.1099E+01
  0.1052E+01
  0.1007E+01
  0.9654E+00
  0.9270E+00
  0.8929E+00
  0.8641E+00
  0.8502E+00
  0.8521E+00
  0.8680E+00
  0.8916E+00
  0.9136E+00
  0.9285E+00
  0.9304E+00
  0.9242E+00
  0.8867E+00
  0.8104E+00
  0.7188E+00
  0.6368E+00
  0.5859E+00
  0.5790E+00
  0.5829E+00
  0.5969E+00
  0.6158E+00
  0.6176E+00
  0.5412E+00
  0.3763E+00
  0.2869E+01
  0.2869E+01
  0.2869E+01
  0.2869E+01
  0.2869E+01
  0.2869E+01
  0.2869E+01
  0.2869E+01
  0.2869E+01
  0.2868E+01
  0.2864E+01
  0.2852E+01
  0.2823E+01
  0.2768E+01
  0.2685E+01
  0.2581E+01
  0.2469E+01
  0.2354E+01
  0.2242E+01
  0.2133E+01
  0.2029E+01
  0.1929E+01
  0.1835E+01
  0.1746E+01
  0.1662E+01
  0.1583E+01
  0.1508E+01
  0.1437E+01
  0.1370E+01
  0.1306E+01
  0.1246E+01
  0.1189E+01
  0.1134E+01
  0.1083E+01
  0.1035E+01
  0.9895E+00
  0.9471E+00
  0.9078E+00
  0.8728E+00
  0.8434E+00
  0.8268E+00
  0.8273E+00
  0.8404E+00
  0.8610E+00
  0.8803E+00
  0.8953E+00
  0.9005E+00
  0.8975E+00
  0.8694E+00
  0.7992E+00
  0.7115E+00
  0.6311E+00
  0.5824E+00
  0.5770E+00
  0.5814E+00
  0.5960E+00
  0.6152E+00
  0.6149E+00
  0.5253E+00
  0.3625E+00
  0.2842E+01
  0.2842E+01
  0.2842E+01
  0.2842E+01
  0.2842E+01
  0.2842E+01
  0.2842E+01
  0.2842E+01
  0.2842E+01
  0.2841E+01
  0.2837E+01
  0.2826E+01
  0.2798E+01
  0.2744E+01
  0.2662E+01
  0.2559E+01
  0.2447E+01
  0.2333E+01
  0.2221E+01
  0.2112E+01
  0.2008E+01
  0.1909E+01
  0.1814E+01
  0.1725E+01
  0.1641E+01
  0.1561E+01
  0.1486E+01
  0.1415E+01
  0.1347E+01
  0.1283E+01
  0.1222E+01
  0.1164E+01
  0.1109E+01
  0.1057E+01
  0.1008E+01
  0.9613E+00
  0.9180E+00
  0.8778E+00
  0.8418E+00
  0.8117E+00
  0.7925E+00
  0.7914E+00
  0.8010E+00
  0.8187E+00
  0.8361E+00
  0.8518E+00
  0.8627E+00
  0.8631E+00
  0.8458E+00
  0.7830E+00
  0.6989E+00
  0.6216E+00
  0.5774E+00
  0.5735E+00
  0.5794E+00
  0.5955E+00
  0.6156E+00
  0.6104E+00
  0.5010E+00
  0.3427E+00
  0.2802E+01
  0.2802E+01
  0.2802E+01
  0.2802E+01
  0.2802E+01
  0.2802E+01
  0.2802E+01
  0.2802E+01
  0.2801E+01
  0.2801E+01
  0.2797E+01
  0.2786E+01
  0.2759E+01
  0.2707E+01
  0.2627E+01
  0.2525E+01
  0.2414E+01
  0.2301E+01
  0.2189E+01
  0.2081E+01
  0.1976E+01
  0.1877E+01
  0.1783E+01
  0.1693E+01
  0.1609E+01
  0.1529E+01
  0.1453E+01
  0.1381E+01
  0.1313E+01
  0.1248E+01
  0.1186E+01
  0.1127E+01
  0.1072E+01
  0.1019E+01
  0.9695E+00
  0.9226E+00
  0.8788E+00
  0.8381E+00
  0.8015E+00
  0.7711E+00
  0.7499E+00
  0.7474E+00
  0.7543E+00
  0.7699E+00
  0.7867E+00
  0.8050E+00
  0.8231E+00
  0.8288E+00
  0.8186E+00
  0.7622E+00
  0.6810E+00
  0.6075E+00
  0.5702E+00
  0.5687E+00
  0.5769E+00
  0.5951E+00
  0.6144E+00
  0.6006E+00
  0.4688E+00
  0.3185E+00
  0.2743E+01
  0.2743E+01
  0.2743E+01
  0.2743E+01
  0.2743E+01
  0.2743E+01
  0.2743E+01
  0.2743E+01
  0.2743E+01
  0.2742E+01
  0.2739E+01
  0.2729E+01
  0.2704E+01
  0.2654E+01
  0.2576E+01
  0.2476E+01
  0.2366E+01
  0.2254E+01
  0.2143E+01
  0.2035E+01
  0.1931E+01
  0.1832E+01
  0.1737E+01
  0.1648E+01
  0.1563E+01
  0.1483E+01
  0.1407E+01
  0.1335E+01
  0.1267E+01
  0.1202E+01
  0.1140E+01
  0.1081E+01
  0.1025E+01
  0.9727E+00
  0.9230E+00
  0.8764E+00
  0.8327E+00
  0.7923E+00
  0.7559E+00
  0.7256E+00
  0.7033E+00
  0.7000E+00
  0.7053E+00
  0.7199E+00
  0.7380E+00
  0.7612E+00
  0.7887E+00
  0.8003E+00
  0.7915E+00
  0.7373E+00
  0.6574E+00
  0.5888E+00
  0.5616E+00
  0.5624E+00
  0.5739E+00
  0.5949E+00
  0.6115E+00
  0.5839E+00
  0.4286E+00
  0.2923E+00
  0.2665E+01
  0.2665E+01
  0.2665E+01
  0.2665E+01
  0.2665E+01
  0.2665E+01
  0.2665E+01
  0.2665E+01
  0.2665E+01
  0.2664E+01
  0.2661E+01
  0.2652E+01
  0.2628E+01
  0.2581E+01
  0.2506E+01
  0.2410E+01
  0.2302E+01
  0.2191E+01
  0.2081E+01
  0.1974E+01
  0.1871E+01
  0.1772E+01
  0.1679E+01
  0.1590E+01
  0.1506E+01
  0.1426E+01
  0.1351E+01
  0.1279E+01
  0.1211E+01
  0.1147E+01
  0.1086E+01
  0.1027E+01
  0.9726E+00
  0.9208E+00
  0.8721E+00
  0.8263E+00
  0.7836E+00
  0.7442E+00
  0.7086E+00
  0.6787E+00
  0.6561E+00
  0.6528E+00
  0.6579E+00
  0.6725E+00
  0.6943E+00
  0.7261E+00
  0.7645E+00
  0.7789E+00
  0.7679E+00
  0.7080E+00
  0.6300E+00
  0.5682E+00
  0.5519E+00
  0.5553E+00
  0.5704E+00
  0.5941E+00
  0.6064E+00
  0.5542E+00
  0.3863E+00
  0.2671E+00
  0.2568E+01
  0.2568E+01
  0.2568E+01
  0.2568E+01
  0.2568E+01
  0.2568E+01
  0.2568E+01
  0.2567E+01
  0.2567E+01
  0.2567E+01
  0.2564E+01
  0.2556E+01
  0.2535E+01
  0.2491E+01
  0.2420E+01
  0.2327E+01
  0.2222E+01
  0.2113E+01
  0.2005E+01
  0.1900E+01
  0.1799E+01
  0.1702E+01
  0.1609E+01
  0.1522E+01
  0.1439E+01
  0.1361E+01
  0.1287E+01
  0.1217E+01
  0.1150E+01
  0.1087E+01
  0.1027E+01
  0.9708E+00
  0.9175E+00
  0.8673E+00
  0.8201E+00
  0.7759E+00
  0.7346E+00
  0.6966E+00
  0.6622E+00
  0.6330E+00
  0.6109E+00
  0.6081E+00
  0.6138E+00
  0.6305E+00
  0.6603E+00
  0.7044E+00
  0.7533E+00
  0.7641E+00
  0.7450E+00
  0.6764E+00
  0.6001E+00
  0.5485E+00
  0.5419E+00
  0.5483E+00
  0.5683E+00
  0.5936E+00
  0.5953E+00
  0.5117E+00
  0.3446E+00
  0.2449E+00
  0.2456E+01
  0.2456E+01
  0.2456E+01
  0.2456E+01
  0.2456E+01
  0.2456E+01
  0.2456E+01
  0.2456E+01
  0.2456E+01
  0.2455E+01
  0.2453E+01
  0.2446E+01
  0.2427E+01
  0.2387E+01
  0.2320E+01
  0.2232E+01
  0.2130E+01
  0.2025E+01
  0.1920E+01
  0.1817E+01
  0.1719E+01
  0.1624E+01
  0.1534E+01
  0.1449E+01
  0.1368E+01
  0.1292E+01
  0.1220E+01
  0.1152E+01
  0.1088E+01
  0.1027E+01
  0.9688E+00
  0.9143E+00
  0.8629E+00
  0.8147E+00
  0.7694E+00
  0.7270E+00
  0.6875E+00
  0.6509E+00
  0.6179E+00
  0.5891E+00
  0.5688E+00
  0.5672E+00
  0.5746E+00
  0.5975E+00
  0.6416E+00
  0.7035E+00
  0.7512E+00
  0.7531E+00
  0.7173E+00
  0.6422E+00
  0.5694E+00
  0.5327E+00
  0.5320E+00
  0.5436E+00
  0.5675E+00
  0.5909E+00
  0.5781E+00
  0.4571E+00
  0.3062E+00
  0.2271E+00
  0.2337E+01
  0.2337E+01
  0.2337E+01
  0.2337E+01
  0.2337E+01
  0.2337E+01
  0.2337E+01
  0.2337E+01
  0.2337E+01
  0.2337E+01
  0.2335E+01
  0.2329E+01
  0.2312E+01
  0.2276E+01
  0.2214E+01
  0.2130E+01
  0.2033E+01
  0.1932E+01
  0.1830E+01
  0.1731E+01
  0.1635E+01
  0.1544E+01
  0.1457E+01
  0.1374E+01
  0.1296E+01
  0.1223E+01
  0.1153E+01
  0.1088E+01
  0.1026E+01
  0.9673E+00
  0.9119E+00
  0.8597E+00
  0.8105E+00
  0.7643E+00
  0.7211E+00
  0.6805E+00
  0.6428E+00
  0.6077E+00
  0.5761E+00
  0.5473E+00
  0.5307E+00
  0.5312E+00
  0.5425E+00
  0.5814E+00
  0.6453E+00
  0.7166E+00
  0.7459E+00
  0.7374E+00
  0.6838E+00
  0.6059E+00
  0.5402E+00
  0.5213E+00
  0.5245E+00
  0.5420E+00
  0.5688E+00
  0.5849E+00
  0.5457E+00
  0.3977E+00
  0.2731E+00
  0.2144E+00
  0.2217E+01
  0.2217E+01
  0.2217E+01
  0.2217E+01
  0.2217E+01
  0.2217E+01
  0.2217E+01
  0.2217E+01
  0.2217E+01
  0.2216E+01
  0.2215E+01
  0.2210E+01
  0.2195E+01
  0.2163E+01
  0.2106E+01
  0.2028E+01
  0.1936E+01
  0.1838E+01
  0.1741E+01
  0.1645E+01
  0.1553E+01
  0.1465E+01
  0.1381E+01
  0.1301E+01
  0.1227E+01
  0.1156E+01
  0.1089E+01
  0.1026E+01
  0.9668E+00
  0.9107E+00
  0.8577E+00
  0.8078E+00
  0.7608E+00
  0.7167E+00
  0.6754E+00
  0.6367E+00
  0.6007E+00
  0.5670E+00
  0.5365E+00
  0.5075E+00
  0.4983E+00
  0.5016E+00
  0.5281E+00
  0.5873E+00
  0.6644E+00
  0.7285E+00
  0.7362E+00
  0.7137E+00
  0.6453E+00
  0.5683E+00
  0.5174E+00
  0.5125E+00
  0.5204E+00
  0.5435E+00
  0.5706E+00
  0.5713E+00
  0.4929E+00
  0.3439E+00
  0.2460E+00
  0.2066E+00
  0.2099E+01
  0.2099E+01
  0.2099E+01
  0.2099E+01
  0.2099E+01
  0.2099E+01
  0.2099E+01
  0.2099E+01
  0.2099E+01
  0.2099E+01
  0.2097E+01
  0.2093E+01
  0.2081E+01
  0.2052E+01
  0.2001E+01
  0.1927E+01
  0.1840E+01
  0.1747E+01
  0.1653E+01
  0.1562E+01
  0.1473E+01
  0.1388E+01
  0.1308E+01
  0.1232E+01
  0.1160E+01
  0.1092E+01
  0.1028E+01
  0.9676E+00
  0.9107E+00
  0.8571E+00
  0.8064E+00
  0.7587E+00
  0.7139E+00
  0.6718E+00
  0.6324E+00
  0.5956E+00
  0.5610E+00
  0.5288E+00
  0.4982E+00
  0.4734E+00
  0.4714E+00
  0.4874E+00
  0.5363E+00
  0.6115E+00
  0.6931E+00
  0.7304E+00
  0.7247E+00
  0.6791E+00
  0.6023E+00
  0.5316E+00
  0.5038E+00
  0.5057E+00
  0.5208E+00
  0.5480E+00
  0.5670E+00
  0.5459E+00
  0.4260E+00
  0.2977E+00
  0.2255E+00
  0.2025E+00
  0.1986E+01
  0.1986E+01
  0.1986E+01
  0.1986E+01
  0.1986E+01
  0.1986E+01
  0.1986E+01
  0.1986E+01
  0.1986E+01
  0.1985E+01
  0.1984E+01
  0.1981E+01
  0.1970E+01
  0.1945E+01
  0.1899E+01
  0.1831E+01
  0.1748E+01
  0.1660E+01
  0.1570E+01
  0.1482E+01
  0.1397E+01
  0.1316E+01
  0.1238E+01
  0.1165E+01
  0.1096E+01
  0.1031E+01
  0.9698E+00
  0.9121E+00
  0.8577E+00
  0.8064E+00
  0.7580E+00
  0.7125E+00
  0.6697E+00
  0.6296E+00
  0.5920E+00
  0.5568E+00
  0.5236E+00
  0.4923E+00
  0.4608E+00
  0.4497E+00
  0.4581E+00
  0.4961E+00
  0.5640E+00
  0.6482E+00
  0.7159E+00
  0.7236E+00
  0.7022E+00
  0.6342E+00
  0.5557E+00
  0.5032E+00
  0.4971E+00
  0.5037E+00
  0.5250E+00
  0.5519E+00
  0.5549E+00
  0.4953E+00
  0.3612E+00
  0.2609E+00
  0.2121E+00
  0.2008E+00
  0.1878E+01
  0.1878E+01
  0.1878E+01
  0.1878E+01
  0.1878E+01
  0.1878E+01
  0.1878E+01
  0.1878E+01
  0.1878E+01
  0.1877E+01
  0.1877E+01
  0.1874E+01
  0.1865E+01
  0.1843E+01
  0.1801E+01
  0.1739E+01
  0.1661E+01
  0.1576E+01
  0.1491E+01
  0.1406E+01
  0.1325E+01
  0.1247E+01
  0.1172E+01
  0.1102E+01
  0.1036E+01
  0.9736E+00
  0.9150E+00
  0.8598E+00
  0.8077E+00
  0.7587E+00
  0.7125E+00
  0.6690E+00
  0.6282E+00
  0.5899E+00
  0.5542E+00
  0.5202E+00
  0.4883E+00
  0.4556E+00
  0.4348E+00
  0.4389E+00
  0.4675E+00
  0.5264E+00
  0.6059E+00
  0.6879E+00
  0.7187E+00
  0.7105E+00
  0.6588E+00
  0.5790E+00
  0.5120E+00
  0.4903E+00
  0.4925E+00
  0.5068E+00
  0.5331E+00
  0.5498E+00
  0.5296E+00
  0.4245E+00
  0.3069E+00
  0.2334E+00
  0.2047E+00
  0.2002E+00
  0.1775E+01
  0.1775E+01
  0.1775E+01
  0.1775E+01
  0.1775E+01
  0.1775E+01
  0.1775E+01
  0.1775E+01
  0.1775E+01
  0.1775E+01
  0.1774E+01
  0.1772E+01
  0.1765E+01
  0.1746E+01
  0.1708E+01
  0.1651E+01
  0.1578E+01
  0.1498E+01
  0.1416E+01
  0.1335E+01
  0.1256E+01
  0.1181E+01
  0.1110E+01
  0.1043E+01
  0.9793E+00
  0.9196E+00
  0.8634E+00
  0.8106E+00
  0.7608E+00
  0.7139E+00
  0.6697E+00
  0.6282E+00
  0.5892E+00
  0.5528E+00
  0.5182E+00
  0.4858E+00
  0.4530E+00
  0.4260E+00
  0.4270E+00
  0.4480E+00
  0.4980E+00
  0.5710E+00
  0.6554E+00
  0.7084E+00
  0.7086E+00
  0.6721E+00
  0.5955E+00
  0.5224E+00
  0.4863E+00
  0.4854E+00
  0.4939E+00
  0.5161E+00
  0.5377E+00
  0.5362E+00
  0.4739E+00
  0.3558E+00
  0.2646E+00
  0.2155E+00
  0.2015E+00
  0.2000E+00
  0.1679E+01
  0.1679E+01
  0.1679E+01
  0.1679E+01
  0.1679E+01
  0.1679E+01
  0.1679E+01
  0.1679E+01
  0.1679E+01
  0.1679E+01
  0.1678E+01
  0.1676E+01
  0.1670E+01
  0.1654E+01
  0.1621E+01
  0.1568E+01
  0.1500E+01
  0.1423E+01
  0.1345E+01
  0.1267E+01
  0.1192E+01
  0.1120E+01
  0.1052E+01
  0.9870E+00
  0.9261E+00
  0.8688E+00
  0.8150E+00
  0.7644E+00
  0.7167E+00
  0.6718E+00
  0.6296E+00
  0.5899E+00
  0.5528E+00
  0.5176E+00
  0.4846E+00
  0.4515E+00
  0.4224E+00
  0.4207E+00
  0.4356E+00
  0.4781E+00
  0.5415E+00
  0.6232E+00
  0.6930E+00
  0.7025E+00
  0.6770E+00
  0.6039E+00
  0.5288E+00
  0.4846E+00
  0.4798E+00
  0.4850E+00
  0.5030E+00
  0.5254E+00
  0.5332E+00
  0.5008E+00
  0.3994E+00
  0.2996E+00
  0.2340E+00
  0.2058E+00
  0.2004E+00
  0.2000E+00
  0.1588E+01
  0.1588E+01
  0.1588E+01
  0.1588E+01
  0.1588E+01
  0.1588E+01
  0.1588E+01
  0.1588E+01
  0.1588E+01
  0.1588E+01
  0.1587E+01
  0.1586E+01
  0.1581E+01
  0.1567E+01
  0.1538E+01
  0.1490E+01
  0.1426E+01
  0.1354E+01
  0.1279E+01
  0.1204E+01
  0.1132E+01
  0.1063E+01
  0.9969E+00
  0.9347E+00
  0.8762E+00
  0.8212E+00
  0.7696E+00
  0.7210E+00
  0.6754E+00
  0.6324E+00
  0.5920E+00
  0.5541E+00
  0.5182E+00
  0.4846E+00
  0.4510E+00
  0.4212E+00
  0.4181E+00
  0.4290E+00
  0.4665E+00
  0.5238E+00
  0.5983E+00
  0.6730E+00
  0.6941E+00
  0.6755E+00
  0.6068E+00
  0.5312E+00
  0.4840E+00
  0.4768E+00
  0.4799E+00
  0.4937E+00
  0.5144E+00
  0.5257E+00
  0.5107E+00
  0.4335E+00
  0.3330E+00
  0.2570E+00
  0.2148E+00
  0.2017E+00
  0.2001E+00
  0.2000E+00
  0.1502E+01
  0.1502E+01
  0.1502E+01
  0.1502E+01
  0.1502E+01
  0.1502E+01
  0.1502E+01
  0.1502E+01
  0.1502E+01
  0.1502E+01
  0.1502E+01
  0.1501E+01
  0.1497E+01
  0.1485E+01
  0.1459E+01
  0.1416E+01
  0.1356E+01
  0.1288E+01
  0.1216E+01
  0.1145E+01
  0.1075E+01
  0.1009E+01
  0.9456E+00
  0.8858E+00
  0.8295E+00
  0.7767E+00
  0.7271E+00
  0.6805E+00
  0.6367E+00
  0.5955E+00
  0.5568E+00
  0.5201E+00
  0.4858E+00
  0.4516E+00
  0.4213E+00
  0.4174E+00
  0.4265E+00
  0.4584E+00
  0.5088E+00
  0.5795E+00
  0.6614E+00
  0.6873E+00
  0.6736E+00
  0.6097E+00
  0.5330E+00
  0.4842E+00
  0.4761E+00
  0.4778E+00
  0.4885E+00
  0.5069E+00
  0.5180E+00
  0.5115E+00
  0.4549E+00
  0.3609E+00
  0.2804E+00
  0.2277E+00
  0.2051E+00
  0.2004E+00
  0.2000E+00
  0.2000E+00
  0.1423E+01
  0.1423E+01
  0.1423E+01
  0.1423E+01
  0.1423E+01
  0.1423E+01
  0.1423E+01
  0.1423E+01
  0.1423E+01
  0.1422E+01
  0.1422E+01
  0.1421E+01
  0.1418E+01
  0.1408E+01
  0.1386E+01
  0.1346E+01
  0.1291E+01
  0.1227E+01
  0.1158E+01
  0.1090E+01
  0.1023E+01
  0.9588E+00
  0.8978E+00
  0.8402E+00
  0.7860E+00
  0.7352E+00
  0.6875E+00
  0.6428E+00
  0.6007E+00
  0.5610E+00
  0.5235E+00
  0.4883E+00
  0.4528E+00
  0.4223E+00
  0.4179E+00
  0.4264E+00
  0.4550E+00
  0.4996E+00
  0.5620E+00
  0.6395E+00
  0.6834E+00
  0.6769E+00
  0.6183E+00
  0.5384E+00
  0.4873E+00
  0.4773E+00
  0.4779E+00
  0.4862E+00
  0.5023E+00
  0.5134E+00
  0.5104E+00
  0.4668E+00
  0.3816E+00
  0.3009E+00
  0.2423E+00
  0.2108E+00
  0.2013E+00
  0.2001E+00
  0.2000E+00
  0.2000E+00
  0.1349E+01
  0.1349E+01
  0.1349E+01
  0.1349E+01
  0.1349E+01
  0.1349E+01
  0.1349E+01
  0.1349E+01
  0.1349E+01
  0.1348E+01
  0.1348E+01
  0.1348E+01
  0.1345E+01
  0.1337E+01
  0.1317E+01
  0.1282E+01
  0.1231E+01
  0.1170E+01
  0.1104E+01
  0.1039E+01
  0.9744E+00
  0.9126E+00
  0.8538E+00
  0.7982E+00
  0.7460E+00
  0.6970E+00
  0.6509E+00
  0.6077E+00
  0.5670E+00
  0.5287E+00
  0.4923E+00
  0.4558E+00
  0.4267E+00
  0.4203E+00
  0.4288E+00
  0.4582E+00
  0.4992E+00
  0.5561E+00
  0.6295E+00
  0.6751E+00
  0.6740E+00
  0.6264E+00
  0.5473E+00
  0.4937E+00
  0.4807E+00
  0.4801E+00
  0.4860E+00
  0.4996E+00
  0.5105E+00
  0.5091E+00
  0.4743E+00
  0.3961E+00
  0.3170E+00
  0.2559E+00
  0.2182E+00
  0.2032E+00
  0.2003E+00
  0.2000E+00
  0.2000E+00
  0.2000E+00
  0.1281E+01
  0.1281E+01
  0.1281E+01
  0.1281E+01
  0.1281E+01
  0.1281E+01
  0.1281E+01
  0.1281E+01
  0.1281E+01
  0.1281E+01
  0.1281E+01
  0.1280E+01
  0.1278E+01
  0.1271E+01
  0.1255E+01
  0.1223E+01
  0.1176E+01
  0.1119E+01
  0.1056E+01
  0.9929E+00
  0.9309E+00
  0.8712E+00
  0.8144E+00
  0.7606E+00
  0.7100E+00
  0.6625E+00
  0.6179E+00
  0.5760E+00
  0.5364E+00
  0.4982E+00
  0.4603E+00
  0.4347E+00
  0.4268E+00
  0.4361E+00
  0.4663E+00
  0.5090E+00
  0.5614E+00
  0.6289E+00
  0.6745E+00
  0.6734E+00
  0.6317E+00
  0.5549E+00
  0.5007E+00
  0.4858E+00
  0.4840E+00
  0.4881E+00
  0.4988E+00
  0.5085E+00
  0.5076E+00
  0.4783E+00
  0.4059E+00
  0.3290E+00
  0.2672E+00
  0.2258E+00
  0.2060E+00
  0.2007E+00
  0.2000E+00
  0.2000E+00
  0.2000E+00
  0.2000E+00
  0.1224E+01
  0.1224E+01
  0.1224E+01
  0.1224E+01
  0.1224E+01
  0.1224E+01
  0.1224E+01
  0.1224E+01
  0.1224E+01
  0.1224E+01
  0.1224E+01
  0.1224E+01
  0.1222E+01
  0.1216E+01
  0.1202E+01
  0.1173E+01
  0.1130E+01
  0.1075E+01
  0.1015E+01
  0.9544E+00
  0.8947E+00
  0.8369E+00
  0.7816E+00
  0.7292E+00
  0.6797E+00
  0.6332E+00
  0.5891E+00
  0.5473E+00
  0.5072E+00
  0.4734E+00
  0.4505E+00
  0.4386E+00
  0.4479E+00
  0.4781E+00
  0.5236E+00
  0.5797E+00
  0.6398E+00
  0.6752E+00
  0.6737E+00
  0.6375E+00
  0.5620E+00
  0.5053E+00
  0.4895E+00
  0.4878E+00
  0.4909E+00
  0.4997E+00
  0.5080E+00
  0.5069E+00
  0.4794E+00
  0.4109E+00
  0.3371E+00
  0.2758E+00
  0.2327E+00
  0.2093E+00
  0.2015E+00
  0.2001E+00
  0.2000E+00
  0.2000E+00
  0.2000E+00
  0.2000E+00
  0.1180E+01
  0.1180E+01
  0.1180E+01
  0.1180E+01
  0.1180E+01
  0.1180E+01
  0.1180E+01
  0.1180E+01
  0.1180E+01
  0.1180E+01
  0.1180E+01
  0.1180E+01
  0.1178E+01
  0.1174E+01
  0.1162E+01
  0.1137E+01
  0.1097E+01
  0.1046E+01
  0.9882E+00
  0.9287E+00
  0.8699E+00
  0.8128E+00
  0.7581E+00
  0.7059E+00
  0.6568E+00
  0.6110E+00
  0.5687E+00
  0.5306E+00
  0.4986E+00
  0.4713E+00
  0.4575E+00
  0.4673E+00
  0.4981E+00
  0.5410E+00
  0.5982E+00
  0.6605E+00
  0.6844E+00
  0.6740E+00
  0.6319E+00
  0.5621E+00
  0.5078E+00
  0.4911E+00
  0.4900E+00
  0.4926E+00
  0.5009E+00
  0.5087E+00
  0.5074E+00
  0.4812E+00
  0.4138E+00
  0.3414E+00
  0.2816E+00
  0.2381E+00
  0.2125E+00
  0.2024E+00
  0.2003E+00
  0.2000E+00
  0.2000E+00
  0.2000E+00
  0.2000E+00
  0.2000E+00
  0.1171E+01
  0.1171E+01
  0.1171E+01
  0.1171E+01
  0.1171E+01
  0.1171E+01
  0.1171E+01
  0.1171E+01
  0.1171E+01
  0.1171E+01
  0.1171E+01
  0.1171E+01
  0.1170E+01
  0.1166E+01
  0.1155E+01
  0.1132E+01
  0.1094E+01
  0.1043E+01
  0.9861E+00
  0.9265E+00
  0.8673E+00
  0.8097E+00
  0.7546E+00
  0.7023E+00
  0.6534E+00
  0.6082E+00
  0.5671E+00
  0.5312E+00
  0.5016E+00
  0.4869E+00
  0.4959E+00
  0.5264E+00
  0.5708E+00
  0.6226E+00
  0.6731E+00
  0.6883E+00
  0.6766E+00
  0.6255E+00
  0.5547E+00
  0.5048E+00
  0.4909E+00
  0.4906E+00
  0.4929E+00
  0.5010E+00
  0.5090E+00
  0.5081E+00
  0.4829E+00
  0.4166E+00
  0.3447E+00
  0.2852E+00
  0.2420E+00
  0.2153E+00
  0.2035E+00
  0.2005E+00
  0.2000E+00
  0.2000E+00
  0.2000E+00
  0.2000E+00
  0.2000E+00
  0.2000E+00
  0.1175E+01
  0.1175E+01
  0.1175E+01
  0.1175E+01
  0.1175E+01
  0.1175E+01
  0.1175E+01
  0.1175E+01
  0.1175E+01
  0.1175E+01
  0.1175E+01
  0.1175E+01
  0.1174E+01
  0.1170E+01
  0.1161E+01
  0.1140E+01
  0.1104E+01
  0.1055E+01
  0.9972E+00
  0.9367E+00
  0.8759E+00
  0.8166E+00
  0.7600E+00
  0.7071E+00
  0.6583E+00
  0.6138E+00
  0.5745E+00
  0.5425E+00
  0.5276E+00
  0.5362E+00
  0.5641E+00
  0.6059E+00
  0.6560E+00
  0.6928E+00
  0.6925E+00
  0.6757E+00
  0.6181E+00
  0.5469E+00
  0.4999E+00
  0.4890E+00
  0.4898E+00
  0.4929E+00
  0.5007E+00
  0.5087E+00
  0.5080E+00
  0.4833E+00
  0.4173E+00
  0.3465E+00
  0.2877E+00
  0.2445E+00
  0.2173E+00
  0.2045E+00
  0.2007E+00
  0.2001E+00
  0.2000E+00
  0.2000E+00
  0.2000E+00
  0.2000E+00
  0.2000E+00
  0.2000E+00
  0.1191E+01
  0.1191E+01
  0.1191E+01
  0.1191E+01
  0.1191E+01
  0.1191E+01
  0.1191E+01
  0.1191E+01
  0.1191E+01
  0.1191E+01
  0.1191E+01
  0.1191E+01
  0.1190E+01
  0.1187E+01
  0.1179E+01
  0.1160E+01
  0.1125E+01
  0.1076E+01
  0.1018E+01
  0.9553E+00
  0.8929E+00
  0.8322E+00
  0.7747E+00
  0.7213E+00
  0.6728E+00
  0.6305E+00
  0.5975E+00
  0.5812E+00
  0.5875E+00
  0.6116E+00
  0.6485E+00
  0.6879E+00
  0.7085E+00
  0.7022E+00
  0.6758E+00
  0.6104E+00
  0.5388E+00
  0.4936E+00
  0.4849E+00
  0.4877E+00
  0.4924E+00
  0.5009E+00
  0.5087E+00
  0.5078E+00
  0.4828E+00
  0.4174E+00
  0.3469E+00
  0.2888E+00
  0.2461E+00
  0.2187E+00
  0.2052E+00
  0.2009E+00
  0.2001E+00
  0.2000E+00
  0.2000E+00
  0.2000E+00
  0.2000E+00
  0.2000E+00
  0.2000E+00
  0.2000E+00
  0.1210E+01
  0.1210E+01
  0.1210E+01
  0.1210E+01
  0.1210E+01
  0.1210E+01
  0.1210E+01
  0.1210E+01
  0.1210E+01
  0.1210E+01
  0.1210E+01
  0.1209E+01
  0.1209E+01
  0.1206E+01
  0.1199E+01
  0.1181E+01
  0.1148E+01
  0.1098E+01
  0.1038E+01
  0.9737E+00
  0.9094E+00
  0.8480E+00
  0.7908E+00
  0.7391E+00
  0.6945E+00
  0.6603E+00
  0.6415E+00
  0.6455E+00
  0.6646E+00
  0.6937E+00
  0.7153E+00
  0.7182E+00
  0.7091E+00
  0.6766E+00
  0.6073E+00
  0.5333E+00
  0.4876E+00
  0.4804E+00
  0.4839E+00
  0.4906E+00
  0.5006E+00
  0.5089E+00
  0.5080E+00
  0.4829E+00
  0.4172E+00
  0.3469E+00
  0.2892E+00
  0.2470E+00
  0.2196E+00
  0.2058E+00
  0.2011E+00
  0.2001E+00
  0.2000E+00
  0.2000E+00
  0.2000E+00
  0.2000E+00
  0.2000E+00
  0.2000E+00
  0.2000E+00
  0.2000E+00
  0.1220E+01
  0.1220E+01
  0.1220E+01
  0.1220E+01
  0.1220E+01
  0.1220E+01
  0.1220E+01
  0.1220E+01
  0.1220E+01
  0.1220E+01
  0.1220E+01
  0.1220E+01
  0.1219E+01
  0.1217E+01
  0.1210E+01
  0.1193E+01
  0.1160E+01
  0.1111E+01
  0.1051E+01
  0.9865E+00
  0.9227E+00
  0.8627E+00
  0.8086E+00
  0.7622E+00
  0.7263E+00
  0.7043E+00
  0.7037E+00
  0.7164E+00
  0.7287E+00
  0.7302E+00
  0.7238E+00
  0.7105E+00
  0.6721E+00
  0.6040E+00
  0.5316E+00
  0.4847E+00
  0.4773E+00
  0.4801E+00
  0.4882E+00
  0.4996E+00
  0.5085E+00
  0.5079E+00
  0.4831E+00
  0.4174E+00
  0.3469E+00
  0.2892E+00
  0.2473E+00
  0.2201E+00
  0.2061E+00
  0.2012E+00
  0.2002E+00
  0.2000E+00
  0.2000E+00
  0.2000E+00
  0.2000E+00
  0.2000E+00
  0.2000E+00
  0.2000E+00
  0.2000E+00
  0.2000E+00
  0.1220E+01
  0.1220E+01
  0.1220E+01
  0.1220E+01
  0.1220E+01
  0.1220E+01
  0.1220E+01
  0.1220E+01
  0.1220E+01
  0.1220E+01
  0.1220E+01
  0.1220E+01
  0.1219E+01
  0.1217E+01
  0.1210E+01
  0.1193E+01
  0.1160E+01
  0.1112E+01
  0.1052E+01
  0.9889E+00
  0.9287E+00
  0.8741E+00
  0.8268E+00
  0.7897E+00
  0.7648E+00
  0.7534E+00
  0.7511E+00
  0.7457E+00
  0.7367E+00
  0.7250E+00
  0.7019E+00
  0.6584E+00
  0.5954E+00
  0.5290E+00
  0.4842E+00
  0.4762E+00
  0.4780E+00
  0.4863E+00
  0.4989E+00
  0.5081E+00
  0.5073E+00
  0.4826E+00
  0.4173E+00
  0.3470E+00
  0.2892E+00
  0.2473E+00
  0.2203E+00
  0.2064E+00
  0.2013E+00
  0.2002E+00
  0.2000E+00
  0.2000E+00
  0.2000E+00
  0.2000E+00
  0.2000E+00
  0.2000E+00
  0.2000E+00
  0.2000E+00
  0.2000E+00
  0.2000E+00
  0.1210E+01
  0.1210E+01
  0.1210E+01
  0.1210E+01
  0.1210E+01
  0.1210E+01
  0.1210E+01
  0.1210E+01
  0.1210E+01
  0.1210E+01
  0.1210E+01
  0.1209E+01
  0.1209E+01
  0.1206E+01
  0.1198E+01
  0.1181E+01
  0.1148E+01
  0.1101E+01
  0.1044E+01
  0.9839E+00
  0.9266E+00
  0.8753E+00
  0.8335E+00
  0.8019E+00
  0.7793E+00
  0.7641E+00
  0.7530E+00
  0.7374E+00
  0.7134E+00
  0.6790E+00
  0.6342E+00
  0.5788E+00
  0.5221E+00
  0.4845E+00
  0.4772E+00
  0.4781E+00
  0.4861E+00
  0.4995E+00
  0.5085E+00
  0.5070E+00
  0.4811E+00
  0.4164E+00
  0.3465E+00
  0.2889E+00
  0.2470E+00
  0.2201E+00
  0.2064E+00
  0.2014E+00
  0.2002E+00
  0.2000E+00
  0.2000E+00
  0.2000E+00
  0.2000E+00
  0.2000E+00
  0.2000E+00
  0.2000E+00
  0.2000E+00
  0.2000E+00
  0.2000E+00
  0.2000E+00
  0.1155E+01
  0.1155E+01
  0.1155E+01
  0.1155E+01
  0.1155E+01
  0.1155E+01
  0.1155E+01
  0.1155E+01
  0.1155E+01
  0.1155E+01
  0.1155E+01
  0.1155E+01
  0.1154E+01
  0.1150E+01
  0.1141E+01
  0.1123E+01
  0.1092E+01
  0.1048E+01
  0.9983E+00
  0.9481E+00
  0.9018E+00
  0.8608E+00
  0.8242E+00
  0.7934E+00
  0.7684E+00
  0.7450E+00
  0.7172E+00
  0.6836E+00
  0.6453E+00
  0.6023E+00
  0.5556E+00
  0.5118E+00
  0.4861E+00
  0.4798E+00
  0.4804E+00
  0.4885E+00
  0.5021E+00
  0.5104E+00
  0.5077E+00
  0.4797E+00
  0.4139E+00
  0.3446E+00
  0.2876E+00
  0.2461E+00
  0.2196E+00
  0.2061E+00
  0.2013E+00
  0.2002E+00
  0.2000E+00
  0.2000E+00
  0.2000E+00
  0.2000E+00
  0.2000E+00
  0.2000E+00
  0.2000E+00
  0.2000E+00
  0.2000E+00
  0.2000E+00
  0.2000E+00
  0.2000E+00
  0.1047E+01
  0.1047E+01
  0.1047E+01
  0.1047E+01
  0.1047E+01
  0.1047E+01
  0.1047E+01
  0.1047E+01
  0.1047E+01
  0.1047E+01
  0.1047E+01
  0.1046E+01
  0.1045E+01
  0.1041E+01
  0.1031E+01
  0.1013E+01
  0.9853E+00
  0.9494E+00
  0.9097E+00
  0.8702E+00
  0.8336E+00
  0.8006E+00
  0.7705E+00
  0.7403E+00
  0.7089E+00
  0.6766E+00
  0.6422E+00
  0.6058E+00
  0.5683E+00
  0.5315E+00
  0.5033E+00
  0.4906E+00
  0.4849E+00
  0.4853E+00
  0.4937E+00
  0.5071E+00
  0.5140E+00
  0.5091E+00
  0.4783E+00
  0.4112E+00
  0.3416E+00
  0.2852E+00
  0.2445E+00
  0.2187E+00
  0.2058E+00
  0.2012E+00
  0.2002E+00
  0.2000E+00
  0.2000E+00
  0.2000E+00
  0.2000E+00
  0.2000E+00
  0.2000E+00
  0.2000E+00
  0.2000E+00
  0.2000E+00
  0.2000E+00
  0.2000E+00
  0.2000E+00
  0.2000E+00
  0.9181E+00
  0.9181E+00
  0.9181E+00
  0.9181E+00
  0.9181E+00
  0.9181E+00
  0.9181E+00
  0.9181E+00
  0.9181E+00
  0.9181E+00
  0.9179E+00
  0.9172E+00
  0.9153E+00
  0.9104E+00
  0.9004E+00
  0.8835E+00
  0.8601E+00
  0.8327E+00
  0.8038E+00
  0.7748E+00
  0.7461E+00
  0.7181E+00
  0.6905E+00
  0.6613E+00
  0.6314E+00
  0.6005E+00
  0.5695E+00
  0.5402E+00
  0.5175E+00
  0.5038E+00
  0.4971E+00
  0.4928E+00
  0.4940E+00
  0.5026E+00
  0.5145E+00
  0.5191E+00
  0.5110E+00
  0.4742E+00
  0.4059E+00
  0.3370E+00
  0.2816E+00
  0.2420E+00
  0.2173E+00
  0.2052E+00
  0.2011E+00
  0.2002E+00
  0.2000E+00
  0.2000E+00
  0.2000E+00
  0.2000E+00
  0.2000E+00
  0.2000E+00
  0.2000E+00
  0.2000E+00
  0.2000E+00
  0.2000E+00
  0.2000E+00
  0.2000E+00
  0.2000E+00
  0.2000E+00
  0.8037E+00
  0.8037E+00
  0.8037E+00
  0.8037E+00
  0.8037E+00
  0.8037E+00
  0.8037E+00
  0.8036E+00
  0.8036E+00
  0.8036E+00
  0.8034E+00
  0.8025E+00
  0.8002E+00
  0.7948E+00
  0.7847E+00
  0.7695E+00
  0.7507E+00
  0.7301E+00
  0.7089E+00
  0.6871E+00
  0.6644E+00
  0.6414E+00
  0.6180E+00
  0.5935E+00
  0.5700E+00
  0.5491E+00
  0.5327E+00
  0.5214E+00
  0.5123E+00
  0.5057E+00
  0.5034E+00
  0.5070E+00
  0.5160E+00
  0.5252E+00
  0.5250E+00
  0.5125E+00
  0.4668E+00
  0.3963E+00
  0.3289E+00
  0.2758E+00
  0.2381E+00
  0.2152E+00
  0.2045E+00
  0.2009E+00
  0.2001E+00
  0.2000E+00
  0.2000E+00
  0.2000E+00
  0.2000E+00
  0.2000E+00
  0.2000E+00
  0.2000E+00
  0.2000E+00
  0.2000E+00
  0.2000E+00
  0.2000E+00
  0.2000E+00
  0.2000E+00
  0.2000E+00
  0.2000E+00
  0.7295E+00
  0.7295E+00
  0.7295E+00
  0.7295E+00
  0.7295E+00
  0.7295E+00
  0.7295E+00
  0.7295E+00
  0.7294E+00
  0.7294E+00
  0.7291E+00
  0.7282E+00
  0.7256E+00
  0.7199E+00
  0.7101E+00
  0.6966E+00
  0.6809E+00
  0.6646E+00
  0.6478E+00
  0.6308E+00
  0.6137E+00
  0.5973E+00
  0.5814E+00
  0.5671E+00
  0.5543E+00
  0.5427E+00
  0.5322E+00
  0.5245E+00
  0.5205E+00
  0.5207E+00
  0.5251E+00
  0.5332E+00
  0.5380E+00
  0.5321E+00
  0.5108E+00
  0.4542E+00
  0.3818E+00
  0.3170E+00
  0.2672E+00
  0.2327E+00
  0.2125E+00
  0.2035E+00
  0.2007E+00
  0.2001E+00
  0.2000E+00
  0.2000E+00
  0.2000E+00
  0.2000E+00
  0.2000E+00
  0.2000E+00
  0.2000E+00
  0.2000E+00
  0.2000E+00
  0.2000E+00
  0.2000E+00
  0.2000E+00
  0.2000E+00
  0.2000E+00
  0.2000E+00
  0.2000E+00
  0.7062E+00
  0.7062E+00
  0.7062E+00
  0.7062E+00
  0.7062E+00
  0.7062E+00
  0.7062E+00
  0.7062E+00
  0.7062E+00
  0.7061E+00
  0.7057E+00
  0.7047E+00
  0.7019E+00
  0.6963E+00
  0.6873E+00
  0.6757E+00
  0.6629E+00
  0.6495E+00
  0.6356E+00
  0.6212E+00
  0.6072E+00
  0.5933E+00
  0.5801E+00
  0.5681E+00
  0.5577E+00
  0.5492E+00
  0.5439E+00
  0.5420E+00
  0.5436E+00
  0.5477E+00
  0.5522E+00
  0.5493E+00
  0.5367E+00
  0.5009E+00
  0.4330E+00
  0.3609E+00
  0.3009E+00
  0.2559E+00
  0.2259E+00
  0.2093E+00
  0.2024E+00
  0.2005E+00
  0.2001E+00
  0.2000E+00
  0.2000E+00
  0.2000E+00
  0.2000E+00
  0.2000E+00
  0.2000E+00
  0.2000E+00
  0.2000E+00
  0.2000E+00
  0.2000E+00
  0.2000E+00
  0.2000E+00
  0.2000E+00
  0.2000E+00
  0.2000E+00
  0.2000E+00
  0.2000E+00
  0.7033E+00
  0.7033E+00
  0.7033E+00
  0.7033E+00